ITEM: TIMESTEP
500000
ITEM: NUMBER OF CELLS
21191
ITEM: BOX BOUNDS oo ao pp
0 0.12
0 0.03
-0.1 0.1
ITEM: CELLS xc yc f_out[1] f_out[2] f_out[3] f_out[4] f_out[5] f_out[6] 
0.003 0.00375 0 0 0 0 0 0 
0.003 0.00525 0 0 0 0 0 0 
0.003 0.00675 0 0 0 0 0 0 
0.003 0.00825 0 0 0 0 0 0 
0.003 0.00975 0 0 0 0 0 0 
0.003 0.01125 0 0 0 0 0 0 
0.003 0.01275 0 0 0 0 0 0 
0.003 0.01425 0 0 0 0 0 0 
0.003 0.01575 0 0 0 0 0 0 
0.003 0.01725 0 0 0 0 0 0 
0.003 0.01875 0 0 0 0 0 0 
0.003 0.02025 0 0 0 0 0 0 
0.003 0.02175 0 0 0 0 0 0 
0.003 0.02325 0 0 0 0 0 0 
0.027 0.02325 0 0 0 0 0 0 
0.003 0.02475 0 0 0 0 0 0 
0.027 0.02475 0 0 0 0 0 0 
0.003 0.02625 0 0 0 0 0 0 
0.027 0.02625 0 0 0 0 0 0 
0.003 0.02775 0 0 0 0 0 0 
0.027 0.02775 0 0 0 0 0 0 
0.003 0.02925 0 0 0 0 0 0 
0.027 0.02925 0 0 0 0 0 0 
0.009 0.01425 0 0 0 0 0 0 
0.009 0.01575 0 0 0 0 0 0 
0.009 0.01725 0 0 0 0 0 0 
0.009 0.01875 0 0 0 0 0 0 
0.009 0.02025 0 0 0 0 0 0 
0.009 0.02175 0 0 0 0 0 0 
0.009 0.02325 0 0 0 0 0 0 
0.009 0.02475 0 0 0 0 0 0 
0.009 0.02625 0 0 0 0 0 0 
0.009 0.02775 0 0 0 0 0 0 
0.009 0.02925 0 0 0 0 0 0 
0.015 0.01425 0 0 0 0 0 0 
0.015 0.01575 0 0 0 0 0 0 
0.015 0.01725 0 0 0 0 0 0 
0.015 0.01875 0 0 0 0 0 0 
0.015 0.02025 0 0 0 0 0 0 
0.015 0.02175 0 0 0 0 0 0 
0.015 0.02325 0 0 0 0 0 0 
0.015 0.02475 0 0 0 0 0 0 
0.015 0.02625 0 0 0 0 0 0 
0.015 0.02775 0 0 0 0 0 0 
0.015 0.02925 0 0 0 0 0 0 
0.021 0.02325 0 0 0 0 0 0 
0.021 0.02475 0 0 0 0 0 0 
0.021 0.02625 0 0 0 0 0 0 
0.021 0.02775 0 0 0 0 0 0 
0.021 0.02925 0 0 0 0 0 0 
0.0015 0.000375 0 0 0 0 0 0 
0.0015 0.001125 0 0 0 0 0 0 
0.0255 0.022125 0 0 0 0 0 0 
0.0285 0.022125 0 0 0 0 0 0 
0.0105 0.000375 1.81755 2.30625e+21 1.53365e-05 -1.26513 4.33454 5.00652 
0.0105 0.001125 2.10077 1.98949e+21 1.32301e-05 4.14034 2.27144 -3.24504 
0.0105 0.001875 2.04363 2.00942e+21 1.33627e-05 4.073 8.05351 -0.464517 
0.0075 0.013125 0 0 0 0 0 0 
0.0105 0.013125 0 0 0 0 0 0 
0.0135 0.013125 0 0 0 0 0 0 
0.0165 0.013125 0 0 0 0 0 0 
0.0195 0.022125 0 0 0 0 0 0 
0.0225 0.022125 0 0 0 0 0 0 
0.00675 0.0009375 1.9179 2.47782e+21 1.64775e-05 35.9761 5.57489 2.11263 
0.00825 0.0009375 1.90476 1.99191e+21 1.32462e-05 12.2791 5.55196 0.345346 
0.00675 0.0013125 1.97868 2.42522e+21 1.61277e-05 25.189 7.66716 -1.05705 
0.00825 0.0013125 1.95864 1.92724e+21 1.28161e-05 12.3333 10.891 -1.70287 
0.00675 0.0016875 2.04431 1.89001e+21 1.25686e-05 14.4183 12.1733 2.00698 
0.00675 0.0020625 2.05811 1.73747e+21 1.15541e-05 4.31529 9.21148 1.3591 
0.01125 0.0091875 0 0 0 0 0 0 
0.00375 0.0001875 1.96194 4.68141e+21 3.11313e-05 18.1208 2.90054 7.87788 
0.00525 0.0001875 1.98714 3.62166e+21 2.4084e-05 29.4007 1.51289 2.33325 
0.00375 0.0005625 1.95076 4.54994e+21 3.02571e-05 19.6785 0.507456 2.10207 
0.00525 0.0005625 1.92109 3.51603e+21 2.33816e-05 28.8817 -3.41763 1.01063 
0.003375 0.00121875 2.09163 5.30297e+21 3.52647e-05 11.9624 1.10065 -8.6146 
0.004125 0.00121875 1.94818 4.52243e+21 3.00742e-05 16.1918 1.27168 2.22529 
0.003375 0.00140625 1.99283 4.79711e+21 3.19008e-05 17.4878 6.3238 -4.25028 
0.004125 0.00140625 2.10012 4.46671e+21 2.97036e-05 18.9814 6.77702 2.11391 
0.028125 0.0107812 2.09583 1.35419e+21 9.00533e-06 4.13345 2.0344 -1.03875 
0.006375 0.0113437 2.0376 1.55642e+21 1.03502e-05 2.84959 0.379364 3.92059 
0.006375 0.0115312 1.97198 1.54583e+21 1.02798e-05 -1.0861 -6.02558 2.17935 
0.017625 0.0105937 2.0116 1.39952e+21 9.30681e-06 0.673946 -0.940823 1.98318 
0.0195 0.000375 1.97806 1.42603e+21 9.48309e-06 -1.74714 -1.86528 -1.26295 
0.0225 0.000375 2.05028 1.39773e+21 9.29493e-06 0.00835265 -1.59013 -1.098 
0.004875 0.00084375 2.07142 3.87652e+21 2.57788e-05 25.5919 -4.66099 4.38002 
0.005625 0.00084375 1.93957 3.33997e+21 2.22108e-05 30.5868 -0.364921 0.897454 
0.004875 0.00103125 1.88236 4.14845e+21 2.75872e-05 26.8532 5.01643 -4.36277 
0.005625 0.00103125 1.90789 3.19364e+21 2.12377e-05 21.7778 5.10217 -2.05063 
0.004875 0.00121875 1.8662 3.83524e+21 2.55044e-05 22.1937 2.58335 1.87416 
0.005625 0.00121875 1.89108 3.40807e+21 2.26637e-05 18.1843 0.760226 2.96261 
0.004875 0.00140625 2.15243 3.8953e+21 2.59037e-05 17.8189 -4.59928 2.10127 
0.005625 0.00140625 2.07494 3.31583e+21 2.20503e-05 25.9922 0.255011 0.456554 
0.027375 0.0109687 2.00099 1.38366e+21 9.20134e-06 2.53601 1.53224 2.24282 
0.025875 0.0216562 2.01912 1.29467e+21 8.60955e-06 2.13406 -1.58489 -4.12758 
0.026625 0.0216562 2.01393 1.29467e+21 8.60955e-06 -1.95557 0.809982 -0.382771 
0.008625 0.00721875 2.02497 1.56939e+21 1.04364e-05 -4.83147 -1.90587 -1.59241 
0.007875 0.00740625 2.02059 1.50062e+21 9.97912e-06 0.850812 4.6573 4.22893 
0.008625 0.00740625 2.02382 1.63968e+21 1.09039e-05 -3.48674 2.99011 -2.8432 
0.007875 0.00796875 2.0435 1.54808e+21 1.02947e-05 0.214255 4.5097 0.634803 
0.008625 0.00796875 2.07127 1.56512e+21 1.04081e-05 1.64027 4.11305 -1.71157 
0.007875 0.00815625 1.9684 1.56522e+21 1.04087e-05 -0.490684 5.57409 -1.1529 
0.008625 0.00815625 2.05795 1.5569e+21 1.03534e-05 1.40997 -0.201544 -0.183306 
0.008625 0.00871875 1.96191 1.46294e+21 9.72857e-06 -0.770325 1.87986 0.819392 
0.008625 0.00890625 2.04 1.47535e+21 9.81107e-06 -0.75161 -0.10535 -1.45352 
0.006375 0.00946875 1.96465 1.515e+21 1.00748e-05 -3.51424 1.6891 1.33708 
0.006375 0.00965625 1.90622 1.45482e+21 9.67453e-06 1.61957 5.87757 0.328151 
0.008625 0.00965625 2.0075 1.47328e+21 9.79729e-06 1.83076 3.40935 -0.0815488 
0.009375 0.00946875 2.06385 1.48082e+21 9.84747e-06 0.141697 1.7203 -0.4261 
0.010125 0.00946875 1.97716 1.51159e+21 1.00521e-05 4.26879 -4.306 -0.542499 
0.010125 0.00965625 2.03164 1.46156e+21 9.71935e-06 3.05188 -1.35922 1.51834 
0.010125 0.00984375 2.04164 1.40612e+21 9.35072e-06 -0.177983 -2.55551 -3.45729 
0.009375 0.0104062 2.00998 1.4976e+21 9.95907e-06 2.3865 0.765797 1.05578 
0.013875 0.00984375 1.97263 1.40727e+21 9.35837e-06 1.61765 1.30018 -1.95933 
0.017625 0.0109687 2.11322 1.36406e+21 9.07097e-06 -1.89806 1.03325 -1.56261 
0.017625 0.0111562 1.95219 1.4375e+21 9.5594e-06 0.35568 -1.16318 0.327713 
0.018375 0.0104062 2.05833 1.33991e+21 8.91037e-06 3.29996 -0.587551 2.04136 
0.021375 0.0102187 2.05867 1.34123e+21 8.91919e-06 -1.45824 -1.96161 3.15671 
0.022875 0.0113437 1.98099 1.34989e+21 8.97678e-06 1.46059 -0.488958 -1.16149 
0.022875 0.0216562 2.0581 1.35904e+21 9.03765e-06 4.4725 -2.33418 -4.13098 
0.023625 0.0216562 2.031 1.3197e+21 8.77603e-06 -0.473142 -1.81776 1.59284 
0.01875 0.0024375 1.92434 1.34419e+21 8.93888e-06 0.960549 1.30447 0.740029 
0.029625 0.00909375 1.91132 1.28936e+21 8.57425e-06 1.80136 -3.58068 -4.06248 
0.028875 0.00928125 1.93128 1.41452e+21 9.40656e-06 0.64508 -0.77779 3.36994 
0.028125 0.00965625 2.06354 1.31036e+21 8.7139e-06 0.608915 3.18121 -3.01307 
0.0135 0.000375 2.03548 1.3286e+21 8.83518e-06 -0.575786 -0.934846 2.76428 
0.0165 0.000375 2.04468 1.26381e+21 8.40432e-06 0.16428 0.951051 -3.22608 
0.01275 0.0039375 2.06543 1.41336e+21 9.39887e-06 -1.41317 -0.809616 1.37309 
0.024375 0.00984375 2.0312 1.34519e+21 8.9455e-06 0.6548 0.656125 0.357816 
0.024375 0.0100312 2.00157 1.31666e+21 8.75578e-06 1.68152 -1.76999 1.54917 
0.028125 0.00984375 1.97701 1.43027e+21 9.51128e-06 1.98747 -0.946328 2.84388 
0.028125 0.0102187 1.92743 1.32683e+21 8.82345e-06 -0.0807763 -1.37672 2.78092 
0.024375 0.0109687 2.0021 1.33826e+21 8.89943e-06 1.7266 -1.79704 1.39094 
0.029625 0.0113437 1.98078 1.38282e+21 9.19572e-06 2.05295 2.50427 -1.00103 
0.024375 0.0216562 2.08804 1.36262e+21 9.06143e-06 -1.50253 -4.34303 0.670934 
0.025125 0.0216562 2.01263 1.33043e+21 8.84738e-06 -0.50419 -4.40454 -4.29131 
0.027375 0.0216562 1.94076 1.25175e+21 8.32415e-06 0.60437 -4.72172 0.214919 
0.028125 0.0216562 1.99083 1.27679e+21 8.49063e-06 -1.28966 -2.25222 -4.95233 
0.028875 0.0216562 1.99769 1.41984e+21 9.44196e-06 0.839435 -5.12769 6.86453 
0.029625 0.0216562 2.0684 1.43415e+21 9.5371e-06 -0.999517 3.68936 -1.9877 
0.007875 0.00609375 1.88074 1.5601e+21 1.03747e-05 1.07777 8.20911 -0.23348 
0.008625 0.00609375 2.02924 1.52853e+21 1.01647e-05 -0.14378 5.30591 1.83045 
0.008625 0.00628125 2.02165 1.68831e+21 1.12272e-05 0.874918 4.16418 0.304539 
0.007875 0.00646875 2.08848 1.4994e+21 9.97102e-06 -1.02177 2.76617 -0.518505 
0.008625 0.00646875 2.06263 1.4959e+21 9.94775e-06 -3.78012 0.049868 -0.145877 
0.007875 0.00665625 2.04394 1.52008e+21 1.01085e-05 0.915555 1.78741 4.25196 
0.007875 0.00684375 1.97587 1.58262e+21 1.05244e-05 1.27365 1.91277 -0.578748 
0.008625 0.00684375 1.96447 1.5975e+21 1.06234e-05 -1.6548 3.45655 -0.446119 
0.007875 0.00703125 2.00646 1.56778e+21 1.04257e-05 -0.491941 4.04805 -1.41673 
0.008625 0.00703125 1.96221 1.57743e+21 1.04899e-05 1.61206 4.49536 -0.120292 
0.007875 0.00778125 1.8936 1.5912e+21 1.05815e-05 0.112668 5.73955 -4.30851 
0.008625 0.00778125 1.95485 1.52139e+21 1.01172e-05 0.0864409 -0.865841 1.72967 
0.006375 0.00796875 1.93156 1.48861e+21 9.89925e-06 -1.5615 0.23274 -2.12873 
0.006375 0.00815625 1.95797 1.55846e+21 1.03637e-05 -0.653155 -0.101553 -1.67897 
0.007125 0.00815625 1.98489 1.51111e+21 1.00489e-05 -1.21158 6.05449 1.15876 
0.008625 0.00834375 1.95916 1.57752e+21 1.04905e-05 -1.82127 1.7673 -0.355046 
0.007875 0.00853125 2.05553 1.57337e+21 1.04629e-05 -0.0186065 1.42915 -2.10355 
0.010875 0.0104062 1.97791 1.43779e+21 9.56129e-06 -0.901004 0.558418 0.563907 
0.006375 0.0120938 1.93334 1.42129e+21 9.45158e-06 0.518568 -2.21864 0.803739 
0.006375 0.0122813 1.99984 1.45834e+21 9.69796e-06 1.47811 1.83794 3.56915 
0.006375 0.0124688 1.97095 1.44492e+21 9.60871e-06 0.307306 0.942431 0.942867 
0.006375 0.0126563 1.97812 1.49139e+21 9.91776e-06 -1.56008 -3.33573 3.34308 
0.016125 0.00796875 2.01681 1.35919e+21 9.0386e-06 1.47626 -5.47035 -0.053096 
0.016125 0.00815625 1.98617 1.45699e+21 9.68898e-06 1.9356 -0.173986 0.257392 
0.014625 0.00909375 2.05746 1.34785e+21 8.96323e-06 0.258616 -2.9023 0.587344 
0.014625 0.00928125 1.99794 1.3255e+21 8.81459e-06 1.5542 0.927994 0.351799 
0.016125 0.00946875 2.05806 1.4403e+21 9.57797e-06 4.74631 2.80368 1.12702 
0.015375 0.00965625 2.02732 1.39358e+21 9.26729e-06 2.1764 -1.31725 0.464653 
0.016875 0.00946875 2.01416 1.41161e+21 9.38721e-06 0.778278 -4.29249 -1.10212 
0.017625 0.00946875 2.0441 1.27296e+21 8.46518e-06 4.03997 2.347 -0.805282 
0.017625 0.00965625 2.00785 1.42522e+21 9.47773e-06 2.53338 -1.29602 1.39147 
0.013125 0.00984375 1.95911 1.51765e+21 1.00924e-05 1.81261 -2.89684 1.1038 
0.012375 0.0100312 1.97566 1.3742e+21 9.13843e-06 -0.492233 -2.52435 2.22057 
0.014625 0.0126563 1.95372 1.37578e+21 9.14892e-06 -2.45031 2.37506 0.853884 
0.015375 0.0126563 2.04712 1.32568e+21 8.81579e-06 2.40065 2.72111 -0.831399 
0.016125 0.0126563 2.04112 1.41121e+21 9.38455e-06 3.79668 2.22672 -1.01415 
0.022875 0.00946875 1.96862 1.46181e+21 9.72105e-06 0.888723 -2.06912 0.832714 
0.023625 0.00965625 2.05371 1.35842e+21 9.03346e-06 1.02907 2.93423 0.504992 
0.019125 0.00984375 2.05504 1.35324e+21 8.99902e-06 -1.47755 0.37351 -0.710014 
0.018375 0.0100312 2.01713 1.37533e+21 9.14593e-06 1.49835 0.0638653 0.750456 
0.020625 0.0102187 1.97055 1.39107e+21 9.25063e-06 0.961738 1.26546 -1.7907 
0.022125 0.0100312 2.05012 1.38887e+21 9.23596e-06 -0.672975 -1.52624 1.20171 
0.022875 0.0105937 2.02326 1.35038e+21 8.98001e-06 1.72775 -2.73597 -1.29183 
0.019875 0.0216562 2.02258 1.29467e+21 8.60955e-06 5.48279 -0.449516 -0.467481 
0.020625 0.0216562 2.03585 1.34832e+21 8.9663e-06 0.0706724 -1.06094 -6.83358 
0.019875 0.00909375 1.93695 1.33292e+21 8.86392e-06 -2.11561 0.54734 -3.24714 
0.020625 0.00928125 2.05915 1.28282e+21 8.53078e-06 2.4692 -5.59536 1.14371 
0.0294375 0.0208594 1.88825 1.27396e+21 8.47181e-06 -0.484252 -0.375917 -0.790612 
0.0298125 0.0208594 2.10401 1.3586e+21 9.03467e-06 -4.42383 0.0328804 1.17553 
0.0294375 0.0209531 1.96542 1.38709e+21 9.22413e-06 2.29375 -0.507888 -1.32469 
0.0298125 0.0209531 1.98733 1.33523e+21 8.8793e-06 -1.94393 -2.61852 -1.08949 
0.025875 0.00721875 1.96 1.3687e+21 9.10189e-06 1.11429 1.25949 -3.40854 
0.026625 0.00721875 1.98392 1.38909e+21 9.23743e-06 -0.388608 2.10386 0.452061 
0.025875 0.00740625 2.05583 1.32794e+21 8.83081e-06 2.41453 -0.409928 -2.58213 
0.026625 0.00740625 1.91375 1.36462e+21 9.0747e-06 -1.08308 -1.79883 -0.0460636 
0.0255 0.000375 2.01418 1.31474e+21 8.74301e-06 -3.84682 0.321076 1.00644 
0.0285 0.000375 1.95445 1.4298e+21 9.50818e-06 -6.64762 -0.966945 -1.05729 
0.02475 0.0024375 2.07354 1.40455e+21 9.34028e-06 3.31641 1.19751 -0.935814 
0.02625 0.0024375 2.07268 1.25365e+21 8.33678e-06 -0.363932 0.751395 -0.381083 
0.01275 0.0031875 2.02988 1.35646e+21 9.02044e-06 -7.56376 0.934274 -0.285459 
0.01275 0.0035625 1.95349 1.34323e+21 8.93248e-06 -2.22864 0.973211 2.751 
0.025875 0.00759375 1.92063 1.27429e+21 8.47401e-06 -1.76393 -1.87579 2.89163 
0.026625 0.00759375 1.99151 1.34136e+21 8.92001e-06 5.05937 1.32912 3.24165 
0.025875 0.00778125 1.9562 1.2814e+21 8.5213e-06 2.69896 1.24743 3.50487 
0.026625 0.00778125 1.98798 1.39339e+21 9.26607e-06 2.74883 -0.942737 2.26699 
0.027375 0.00890625 1.97894 1.37877e+21 9.16883e-06 1.08954 -2.75841 -0.694062 
0.028125 0.00890625 2.08382 1.38131e+21 9.18573e-06 -0.293978 3.07565 1.2176 
0.024375 0.00909375 2.03359 1.3379e+21 8.89702e-06 -0.216404 3.42921 -1.78635 
0.025125 0.00909375 2.05768 1.38146e+21 9.18669e-06 3.26625 0.388544 3.17002 
0.024375 0.00928125 2.05164 1.43403e+21 9.5363e-06 3.70166 0.660801 0.832652 
0.024375 0.00946875 1.97999 1.29926e+21 8.64005e-06 2.00409 0.0878478 0.820249 
0.025125 0.00946875 2.00954 1.35543e+21 9.01363e-06 -1.9379 1.76647 1.95799 
0.026625 0.00965625 1.93492 1.376e+21 9.15037e-06 1.20988 -1.12602 -0.13522 
0.026625 0.00984375 2.06724 1.37853e+21 9.16722e-06 0.875165 0.824669 -0.0299602 
0.025125 0.0104062 2.08341 1.38993e+21 9.24306e-06 0.39243 0.663159 -1.60769 
0.028875 0.0107812 2.05384 1.38043e+21 9.17986e-06 0.0838642 -0.918848 0.7638 
0.007875 0.00459375 2.05501 1.64083e+21 1.09115e-05 -0.203637 2.85537 1.09533 
0.008625 0.00459375 2.02688 1.76402e+21 1.17307e-05 -3.01564 4.75643 0.0192596 
0.007875 0.00478125 1.96972 1.70668e+21 1.13494e-05 2.11416 4.52492 6.65006 
0.008625 0.00478125 2.02437 1.6404e+21 1.09087e-05 1.42058 2.15066 -2.14657 
0.007875 0.00496875 1.95833 1.54205e+21 1.02546e-05 5.39933 5.66253 0.824685 
0.008625 0.00496875 1.92091 1.63316e+21 1.08605e-05 1.29876 8.36155 -1.00033 
0.007875 0.00515625 1.98533 1.48817e+21 9.89635e-06 -0.594062 6.18763 0.424881 
0.008625 0.00515625 1.86209 1.59353e+21 1.0597e-05 -2.55801 2.51139 -0.032281 
0.006375 0.00534375 2.00531 1.77906e+21 1.18308e-05 3.09049 3.22153 -0.583031 
0.007125 0.00534375 1.99163 1.57998e+21 1.05068e-05 -2.45601 2.89952 -2.55066 
0.006375 0.00553125 1.91916 1.58448e+21 1.05368e-05 -5.30486 6.11532 -5.56147 
0.007125 0.00553125 1.93978 1.58166e+21 1.05181e-05 -5.24708 2.25527 1.34572 
0.006375 0.0102187 2.04613 1.35812e+21 9.03151e-06 0.949297 -0.139307 0.165898 
0.006375 0.0104062 1.94946 1.41726e+21 9.42478e-06 -1.8722 0.746578 1.04549 
0.006375 0.0105937 2.08542 1.41221e+21 9.39117e-06 0.152517 1.53495 -0.948973 
0.006375 0.0107812 2.03723 1.46638e+21 9.75142e-06 2.99449 -0.857885 1.0386 
0.006375 0.0109687 2.02233 1.56513e+21 1.04081e-05 0.321579 3.43471 2.19406 
0.006375 0.0111562 2.0506 1.41519e+21 9.41099e-06 1.16895 -2.96544 0.182862 
0.011625 0.0107812 2.01 1.37938e+21 9.17288e-06 0.96684 -0.465854 0.795626 
0.006375 0.0117188 1.97041 1.50842e+21 1.0031e-05 -3.40871 6.45928 -1.18505 
0.006375 0.0119063 1.99784 1.49892e+21 9.96785e-06 0.56304 2.1674 -1.22041 
0.015375 0.00759375 2.02366 1.36967e+21 9.10832e-06 1.44174 4.74846 -2.54021 
0.016125 0.00759375 2.02003 1.39948e+21 9.30655e-06 0.579674 -1.42511 1.55982 
0.015375 0.00778125 2.09535 1.33667e+21 8.88885e-06 -2.18976 -0.702046 -0.353813 
0.016125 0.00778125 2.01902 1.34685e+21 8.95655e-06 -0.562844 -3.59901 1.8125 
0.015375 0.00871875 1.93757 1.34482e+21 8.94303e-06 1.98042 -1.16208 -2.59577 
0.016125 0.00871875 2.06352 1.4227e+21 9.46097e-06 2.12707 -0.851622 2.9885 
0.015375 0.00890625 1.96973 1.32667e+21 8.82236e-06 -0.613035 -2.37778 -1.46794 
0.015375 0.00909375 1.9482 1.42377e+21 9.46809e-06 0.149286 -2.25002 1.21821 
0.016125 0.00909375 1.9813 1.35532e+21 9.01289e-06 1.4742 -0.555265 1.47675 
0.015375 0.00928125 2.01542 1.34379e+21 8.93623e-06 3.83038 1.18392 0.759539 
0.015375 0.00984375 1.94182 1.34289e+21 8.93021e-06 0.290391 -1.77301 0.644161 
0.016125 0.00984375 2.04334 1.37508e+21 9.14429e-06 -0.464005 -1.73296 -3.10739 
0.016875 0.0100312 1.95306 1.35051e+21 8.98087e-06 5.85006 -1.0941 -0.445092 
0.017625 0.0100312 2.02283 1.37081e+21 9.11592e-06 0.216885 -0.62292 -2.60303 
0.015375 0.0104062 1.98931 1.33555e+21 8.88144e-06 2.34084 0.172384 1.50245 
0.012375 0.0126563 1.99277 1.28781e+21 8.56391e-06 2.37233 2.31823 0.579912 
0.013125 0.0126563 1.98471 1.36234e+21 9.05954e-06 -0.482677 1.40154 1.91983 
0.019875 0.00759375 1.98382 1.29664e+21 8.62268e-06 0.162073 -3.86598 0.947059 
0.019875 0.00778125 2.00947 1.38321e+21 9.19836e-06 -1.05464 2.19429 -1.02708 
0.020625 0.00778125 2.03553 1.35994e+21 9.0436e-06 2.97091 -2.52318 -3.97143 
0.022875 0.00796875 1.95819 1.27681e+21 8.4908e-06 1.16475 1.63691 0.163277 
0.023625 0.00796875 2.0407 1.27681e+21 8.4908e-06 4.58579 -0.381265 -0.08758 
0.022875 0.00815625 1.99995 1.36957e+21 9.10764e-06 0.360468 3.05851 1.30557 
0.021375 0.00834375 1.94859 1.38762e+21 9.2277e-06 -0.23076 -6.38151 0.408489 
0.022125 0.00834375 1.83666 1.35643e+21 9.02024e-06 3.17714 -1.61827 0.183083 
0.022125 0.00853125 1.95685 1.2762e+21 8.48675e-06 0.072768 0.078146 1.66838 
0.022875 0.00834375 2.04511 1.39305e+21 9.26378e-06 -0.372166 0.116064 -3.23442 
0.023625 0.00834375 2.10448 1.33608e+21 8.88493e-06 1.04935 3.33143 0.469106 
0.022125 0.00909375 2.07033 1.29309e+21 8.59908e-06 1.0019 -0.874203 2.75563 
0.021375 0.00928125 2.00752 1.34014e+21 8.9119e-06 0.213543 0.0420994 -4.16005 
0.020625 0.0100312 1.88744 1.35051e+21 8.98087e-06 -3.61547 -0.546129 0.218191 
0.019875 0.0105937 1.94218 1.42943e+21 9.50573e-06 2.43089 4.15982 -0.0925437 
0.020625 0.0107812 1.94877 1.29435e+21 8.60742e-06 0.160207 0.845301 1.20563 
0.019875 0.0113437 1.96979 1.33692e+21 8.89052e-06 -3.1467 0.573625 0.457389 
0.018375 0.0177187 0 0 0 0 0 0 
0.018375 0.0179062 0 0 0 0 0 0 
0.021375 0.0216562 1.96962 1.27679e+21 8.49063e-06 1.41064 -1.15942 -0.894084 
0.022125 0.0216562 1.82892 1.41269e+21 9.3944e-06 3.08636 2.9737 4.80879 
0.02175 0.0024375 1.9922 1.41732e+21 9.42519e-06 -0.303257 -1.30582 0.50679 
0.021375 0.00609375 2.05324 1.3948e+21 9.27544e-06 1.1672 1.86663 -2.68874 
0.022125 0.00609375 2.02274 1.3038e+21 8.67025e-06 2.74294 -4.09169 -0.584122 
0.021375 0.00628125 2.14441 1.35677e+21 9.02253e-06 -3.06915 -5.59087 -2.80991 
0.022125 0.00628125 1.93574 1.31173e+21 8.72297e-06 1.41873 -0.0564319 1.97959 
0.019125 0.00965625 1.99751 1.3045e+21 8.67493e-06 -0.275242 -1.41629 -1.92966 
0.0211875 0.0182344 1.97088 1.30839e+21 8.7008e-06 5.27536 -2.09643 0.269285 
0.0215625 0.0182344 1.92003 1.24881e+21 8.30455e-06 3.66668 -0.381044 2.04179 
0.0211875 0.0183281 2.11984 1.35604e+21 9.01765e-06 3.86521 3.2038 -1.03556 
0.0215625 0.0183281 2.01927 1.33875e+21 8.90267e-06 -4.85288 -0.133421 -0.214924 
0.027375 0.00571875 1.92717 1.41304e+21 9.39672e-06 0.688754 -0.810891 1.37147 
0.028125 0.00571875 2.0611 1.3319e+21 8.85713e-06 -4.27554 2.22789 2.04582 
0.027375 0.00590625 1.84414 1.41609e+21 9.41698e-06 -0.902152 -2.91746 -0.684949 
0.028125 0.00590625 2.22154 1.40076e+21 9.31504e-06 -1.1324 -3.37509 -4.75236 
0.0249375 0.0182344 1.97433 1.30839e+21 8.7008e-06 -0.251681 -1.71166 -1.57096 
0.0253125 0.0182344 2.09268 1.45984e+21 9.70791e-06 -4.07791 1.25532 -0.882041 
0.0249375 0.0183281 2.16386 1.44496e+21 9.60897e-06 2.80903 1.72019 3.06214 
0.0253125 0.0183281 2.06548 1.31405e+21 8.73842e-06 -1.32335 0.480253 4.19195 
0.0196875 0.0202969 2.03321 1.29811e+21 8.63243e-06 3.53475 2.17365 1.2901 
0.0200625 0.0202969 2.03271 1.32711e+21 8.82525e-06 -0.065875 1.77817 3.35773 
0.0196875 0.0203906 2.0074 1.22332e+21 8.13505e-06 -1.11932 -0.709072 0.0402726 
0.0200625 0.0203906 1.98509 1.31434e+21 8.74038e-06 0.521274 0.061314 2.40749 
0.01125 0.0069375 0 0 0 0 0 0 
0.01125 0.0073125 0 0 0 0 0 0 
0.02475 0.0016875 1.97437 1.4319e+21 9.52211e-06 2.31806 -1.39888 -1.65532 
0.02625 0.0016875 1.83394 1.338e+21 8.89771e-06 1.04247 2.36539 0.512222 
0.02475 0.0020625 1.95377 1.44318e+21 9.59712e-06 -3.0379 -2.17899 1.05303 
0.02625 0.0020625 1.96739 1.34303e+21 8.93116e-06 1.30394 1.08945 -2.89259 
0.02775 0.0016875 2.02012 1.39501e+21 9.27681e-06 0.334515 -1.99722 3.35358 
0.02925 0.0016875 2.01592 1.35477e+21 9.00921e-06 -2.71257 -1.48115 2.04492 
0.02775 0.0020625 2.02732 1.32383e+21 8.80344e-06 0.142949 0.311769 -1.11808 
0.02925 0.0020625 2.09356 1.31971e+21 8.77608e-06 3.6171 0.957006 -0.0262379 
0.02775 0.0024375 2.03676 1.35812e+21 9.03151e-06 1.10174 0.745375 1.53133 
0.01575 0.0024375 2.00719 1.45331e+21 9.66449e-06 2.16005 1.72071 -1.59687 
0.024375 0.00759375 2.04765 1.46208e+21 9.72281e-06 1.84348 0.0479116 5.00683 
0.025125 0.00759375 1.93132 1.32198e+21 8.79117e-06 1.53047 1.17895 4.31021 
0.024375 0.00778125 1.92876 1.39339e+21 9.26607e-06 -0.353042 1.86787 1.47756 
0.025125 0.00778125 1.98379 1.34685e+21 8.95655e-06 -1.70753 -1.7848 3.42035 
0.027375 0.00834375 1.96947 1.39441e+21 9.2728e-06 -0.431706 2.87992 -1.19165 
0.028125 0.00834375 2.03656 1.33065e+21 8.84885e-06 2.48338 -2.38353 -2.74892 
0.028125 0.00853125 1.95255 1.39958e+21 9.3072e-06 0.427985 -0.162925 -0.696189 
0.028875 0.00834375 2.04626 1.36999e+21 9.11044e-06 1.07539 2.14274 3.68057 
0.029625 0.00834375 1.98092 1.4039e+21 9.33595e-06 3.34949 -1.82648 0.502707 
0.028875 0.00853125 2.02332 1.36641e+21 9.08665e-06 -3.1747 -0.255958 -3.2573 
0.029625 0.00853125 2.00304 1.37968e+21 9.17487e-06 1.92243 2.63901 0.341382 
0.006375 0.00459375 2.0011 1.66301e+21 1.1059e-05 -4.22176 -1.17939 -3.46466 
0.007125 0.00459375 2.015 1.51272e+21 1.00596e-05 -0.992098 4.00292 1.69706 
0.006375 0.00478125 1.92622 1.6688e+21 1.10975e-05 -4.58552 0.13621 -4.87534 
0.007125 0.00478125 2.05712 1.56465e+21 1.04049e-05 4.04488 2.23975 1.87969 
0.006375 0.00646875 1.97671 1.54183e+21 1.02532e-05 -1.07675 7.51349 -0.712597 
0.007125 0.00646875 2.03698 1.54139e+21 1.02503e-05 -3.00344 0.556851 2.25839 
0.006375 0.00665625 1.82554 1.67055e+21 1.11092e-05 4.32757 5.6518 2.26279 
0.007125 0.00665625 1.9698 1.56939e+21 1.04364e-05 0.774839 5.2302 -3.26965 
0.006375 0.00721875 1.9193 1.55802e+21 1.03608e-05 6.16799 1.31321 0.998701 
0.007125 0.00721875 1.96894 1.56155e+21 1.03843e-05 -0.398968 4.31022 -0.348998 
0.006375 0.00740625 1.97813 1.56155e+21 1.03843e-05 -1.18616 3.21475 -2.53574 
0.007125 0.00740625 1.93666 1.6626e+21 1.10563e-05 1.28741 1.2929 -2.18367 
0.006375 0.00759375 2.04446 1.60404e+21 1.06668e-05 3.12831 2.85608 2.77719 
0.006375 0.00778125 2.01941 1.47812e+21 9.82948e-06 2.30552 1.6517 4.10847 
0.007125 0.00778125 2.11598 1.49084e+21 9.91411e-06 -0.685629 1.99686 -1.09529 
0.006375 0.00834375 1.92989 1.57685e+21 1.0486e-05 -0.215075 3.65213 4.25314 
0.007125 0.00834375 1.94897 1.55311e+21 1.03282e-05 -0.788925 4.02471 -1.59449 
0.006375 0.00853125 1.92317 1.51483e+21 1.00736e-05 1.94339 0.10261 -4.45865 
0.006375 0.00984375 1.91601 1.40986e+21 9.37557e-06 1.09836 6.21334 -3.03993 
0.006375 0.0100312 1.89203 1.48505e+21 9.87558e-06 -0.111341 1.73569 -1.00559 
0.016875 0.00796875 1.99622 1.37623e+21 9.15193e-06 1.74843 -4.40636 -1.20805 
0.017625 0.00796875 1.9419 1.31516e+21 8.74581e-06 2.09165 -0.339578 0.427208 
0.016875 0.00815625 2.01899 1.34598e+21 8.95077e-06 0.631572 0.689359 -3.32809 
0.017625 0.00815625 1.93949 1.33627e+21 8.88618e-06 4.08538 0.242872 -0.595141 
0.013875 0.00871875 1.95907 1.38636e+21 9.21926e-06 3.72532 -1.75864 -1.14062 
0.014625 0.00871875 1.96977 1.32664e+21 8.82218e-06 -0.203703 -1.62827 -3.91651 
0.016875 0.00834375 1.99804 1.30895e+21 8.70453e-06 1.46875 -1.39203 -0.338463 
0.017625 0.00834375 2.04987 1.39305e+21 9.26378e-06 -0.284616 2.88025 2.96939 
0.016875 0.00853125 2.03284 1.26824e+21 8.43382e-06 1.18923 -0.671992 1.51688 
0.017625 0.00853125 1.95293 1.31202e+21 8.72495e-06 2.285 -1.98938 0.843914 
0.016875 0.00909375 1.98858 1.32794e+21 8.83081e-06 0.774668 1.66523 -0.526162 
0.017625 0.00909375 2.02279 1.36777e+21 9.09565e-06 1.90887 2.77322 -1.98813 
0.012375 0.0104062 2.07728 1.32794e+21 8.83081e-06 1.8154 0.586725 -2.02627 
0.014625 0.0104062 2.0057 1.4193e+21 9.43834e-06 -0.0207104 -2.79225 -1.31112 
0.021375 0.00684375 2.04002 1.39905e+21 9.3037e-06 2.3962 -0.795457 0.179036 
0.022125 0.00684375 2.03647 1.41559e+21 9.41367e-06 0.881497 -2.29919 3.85166 
0.021375 0.00703125 1.93193 1.24102e+21 8.2528e-06 2.66391 -1.21419 -3.33708 
0.022125 0.00703125 2.02238 1.38911e+21 9.23756e-06 0.221932 2.51101 -5.60753 
0.018375 0.00796875 2.02476 1.39327e+21 9.26527e-06 1.06628 -0.607555 -1.01869 
0.019125 0.00796875 2.00996 1.35919e+21 9.0386e-06 2.16566 1.90278 -0.0448567 
0.018375 0.00815625 1.95474 1.42507e+21 9.47674e-06 1.22478 -0.941967 -1.35474 
0.019125 0.00815625 1.9922 1.44034e+21 9.57825e-06 -4.50656 1.15318 0.160027 
0.021375 0.00759375 1.97491 1.28919e+21 8.57312e-06 0.359073 -0.0626323 -0.792625 
0.022125 0.00759375 2.06538 1.32049e+21 8.78126e-06 2.33729 1.26276 1.53713 
0.021375 0.00778125 1.9719 1.33085e+21 8.85016e-06 -0.907833 1.95034 -0.163266 
0.022125 0.00778125 2.08921 1.33085e+21 8.85016e-06 1.65524 1.84302 3.60535 
0.023625 0.00759375 2.09255 1.38905e+21 9.23717e-06 2.84439 -0.428709 1.6134 
0.022875 0.00778125 2.02086 1.37594e+21 9.15e-06 1.83884 -1.17521 -1.36325 
0.018375 0.00871875 2.00521 1.40712e+21 9.35738e-06 -1.76631 0.148731 -1.59095 
0.019125 0.00890625 2.04761 1.32032e+21 8.78011e-06 1.35864 -1.44122 -1.40019 
0.019875 0.00890625 1.96641 1.34954e+21 8.97447e-06 -2.62615 0.503582 3.07948 
0.022125 0.00871875 2.05542 1.41881e+21 9.43507e-06 1.11113 0.796425 -2.22358 
0.022125 0.00890625 1.99277 1.32794e+21 8.83081e-06 2.96607 2.41504 -0.894659 
0.018375 0.0199687 0 0 0 0 0 0 
0.018375 0.0201562 0 0 0 0 0 0 
0.018375 0.0210937 0 0 0 0 0 0 
0.018375 0.0212812 0 0 0 0 0 0 
0.02175 0.0016875 1.93698 1.32626e+21 8.81966e-06 -1.43954 5.16669 4.36228 
0.02175 0.0020625 1.95904 1.36087e+21 9.04976e-06 -0.062831 2.60896 -1.28326 
0.02325 0.0020625 1.96975 1.3005e+21 8.64836e-06 1.8891 -1.33585 -3.06094 
0.026625 0.00609375 2.03869 1.40223e+21 9.32484e-06 4.23136 -0.57296 1.03714 
0.025875 0.00628125 2.01104 1.35677e+21 9.02253e-06 2.22187 -2.04717 -3.31944 
0.026625 0.00628125 1.97058 1.45587e+21 9.68154e-06 -0.7915 -1.1738 -0.61847 
0.027375 0.00759375 1.87184 1.31155e+21 8.72179e-06 0.980284 -1.84158 1.62593 
0.028125 0.00759375 1.99928 1.39799e+21 9.29664e-06 1.83295 2.73196 3.67631 
0.027375 0.00778125 1.90858 1.42103e+21 9.44984e-06 0.0420362 -0.150366 0.785272 
0.028125 0.00778125 1.97138 1.29594e+21 8.61802e-06 0.521332 0.857415 -3.32936 
0.026625 0.00834375 1.98469 1.40255e+21 9.32693e-06 1.30385 3.69028 -1.3329 
0.026625 0.00853125 1.9728 1.37835e+21 9.16605e-06 1.38918 3.01696 -0.289309 
0.025875 0.00871875 2.08568 1.36299e+21 9.06388e-06 1.91374 1.20208 0.78294 
0.025875 0.00890625 1.98671 1.35717e+21 9.02517e-06 0.0141262 0.205474 3.80118 
0.026625 0.00890625 1.92596 1.38131e+21 9.18573e-06 -0.339756 2.81353 -2.09884 
0.015375 0.00571875 2.05435 1.32992e+21 8.84397e-06 0.483562 1.17199 2.19983 
0.016125 0.00571875 1.98518 1.38533e+21 9.21247e-06 -1.79294 -0.0172457 -3.6276 
0.015375 0.00590625 2.10801 1.47166e+21 9.78653e-06 2.8509 -1.00484 -1.68517 
0.016125 0.00590625 1.94922 1.36243e+21 9.06018e-06 0.253728 -0.683305 3.21706 
0.013875 0.00721875 2.06449 1.28718e+21 8.55974e-06 -1.69314 0.88257 -4.67298 
0.014625 0.00721875 1.9323 1.46434e+21 9.73787e-06 -2.40312 1.04032 -0.982244 
0.014625 0.00740625 1.97658 1.39059e+21 9.24746e-06 -0.269313 0.40145 2.43286 
0.015375 0.00721875 1.99817 1.3687e+21 9.10189e-06 0.102256 -0.179841 -0.129076 
0.016125 0.00721875 1.96563 1.38595e+21 9.21657e-06 2.46299 5.07228 1.24343 
0.015375 0.00740625 2.0275 1.42421e+21 9.47102e-06 0.732826 -2.5005 -3.09274 
0.016125 0.00740625 2.01923 1.34017e+21 8.91211e-06 6.72943 -1.95127 -0.980596 
0.022875 0.00571875 1.96736 1.35961e+21 9.04138e-06 1.72351 -5.01472 -0.762125 
0.023625 0.00571875 2.08502 1.30221e+21 8.65972e-06 5.22244 0.378477 1.59983 
0.022875 0.00590625 1.91113 1.39501e+21 9.27681e-06 0.541817 -1.99609 -0.0626124 
0.023625 0.00590625 2.09432 1.418e+21 9.42973e-06 3.41275 -2.34275 -4.69973 
0.019875 0.00684375 2.06551 1.30975e+21 8.70984e-06 -0.107774 3.45674 -3.28322 
0.019875 0.00703125 1.98988 1.38589e+21 9.21616e-06 3.24968 1.20261 -1.20579 
0.020625 0.00703125 2.03569 1.38911e+21 9.23756e-06 1.34546 2.25275 2.61715 
0.024375 0.00721875 1.92477 1.38125e+21 9.1853e-06 2.30469 -1.23366 -1.38504 
0.025125 0.00721875 2.09289 1.34362e+21 8.93507e-06 2.50756 0.949823 0.975723 
0.024375 0.00740625 2.00914 1.26987e+21 8.44465e-06 5.04738 -0.649161 -2.5899 
0.025125 0.00740625 2.02643 1.36462e+21 9.0747e-06 4.65924 -1.84053 1.09673 
0.0279375 0.0195469 1.98264 1.31318e+21 8.73263e-06 -1.16882 1.01583 -4.56381 
0.0283125 0.0195469 1.97247 1.32244e+21 8.79423e-06 -0.737768 3.34953 -3.91507 
0.0279375 0.0196406 2.07203 1.35531e+21 9.01283e-06 -2.41726 2.59509 -3.8611 
0.0283125 0.0196406 1.89958 1.40833e+21 9.36537e-06 -3.28592 1.81747 0.850844 
0.0219375 0.0199219 2.02829 1.32482e+21 8.81003e-06 4.69697 0.759644 -4.37096 
0.0223125 0.0199219 2.00397 1.33618e+21 8.88559e-06 5.51213 0.686037 -0.723454 
0.0219375 0.0200156 1.91448 1.38873e+21 9.23503e-06 4.92817 -1.58998 3.17634 
0.0223125 0.0200156 1.97411 1.35932e+21 9.0395e-06 -1.35972 -3.02389 -0.434499 
0.00975 0.0054375 2.02445 1.59051e+21 1.05769e-05 -0.874288 5.32112 -2.88242 
0.01125 0.0054375 0 0 0 0 0 0 
0.01125 0.0058125 0 0 0 0 0 0 
0.028875 0.00871875 1.98295 1.30977e+21 8.70996e-06 1.40682 -2.55781 -0.430907 
0.028875 0.0104062 1.95163 1.35948e+21 9.04055e-06 0.198005 -1.52482 2.39897 
0.007875 0.00196875 1.84603 1.78209e+21 1.18509e-05 12.2937 11.3245 -2.31747 