ITEM: TIMESTEP
510000
ITEM: NUMBER OF SURFS
60
ITEM: BOX BOUNDS oo ao pp
0 0.35
0 0.03
-0.1 0.1
ITEM: SURFS id v1x v1y v2x v2y 
1 0.00635 0.00159 0.00318 0.00159 
17 0.07109 0.0127 0.07109 0.02223 
33 0.10269 0.00327 0.10316 0.00327 
49 0.13853 0.00157 0.13806 0.00157 
2 0.00635 0.0127 0.00635 0.00159 
18 0.07109 0.02223 0.10268 0.02223 
34 0.10269 0.00278 0.10269 0.00327 
50 0.13853 0.00206 0.13853 0.00157 
3 0.01905 0.0127 0.00635 0.0127 
19 0.10268 0.02223 0.10268 0.0045 
35 0.10316 0.00399 0.10269 0.00399 
51 0.13806 0.00206 0.13853 0.00206 
4 0.01905 0.02159 0.01905 0.0127 
20 0.10268 0.0045 0.10109 0.0045 
36 0.10316 0.00448 0.10316 0.00399 
52 0.13806 0.00157 0.13806 0.00206 
5 0.0635 0.02159 0.01905 0.02159 
21 0.10109 0.0045 0.10109 0.0127 
37 0.10269 0.00448 0.10316 0.00448 
53 0.13853 0.00278 0.13806 0.00278 
6 0.0635 0.0035 0.0635 0.02159 
22 0.10109 0.0127 0.07109 0.0127 
38 0.10269 0.00399 0.10269 0.00448 
54 0.13853 0.00327 0.13853 0.00278 
7 0.06509 0.0035 0.0635 0.0035 
23 0.10316 0.00036 0.10269 0.00036 
39 0.10646 0.0127 0.10646 0.02223 
55 0.13806 0.00327 0.13853 0.00327 
8 0.06509 0.0254 0.06509 0.0035 
24 0.10316 0.00085 0.10316 0.00036 
40 0.10646 0.02223 0.13805 0.02223 
56 0.13806 0.00278 0.13806 0.00327 
9 0 0.0254 0.06509 0.0254 
25 0.10269 0.00085 0.10316 0.00085 
41 0.13805 0.02223 0.13805 0.0045 
57 0.13853 0.00399 0.13806 0.00399 
10 0 0 0 0.0254 
26 0.10269 0.00036 0.10269 0.00085 
42 0.13805 0.0045 0.13646 0.0045 
58 0.13853 0.00448 0.13853 0.00399 
11 0.00318 0 0 0 
27 0.10316 0.00157 0.10269 0.00157 
43 0.13646 0.0045 0.13646 0.0127 
59 0.13806 0.00448 0.13853 0.00448 
12 0.00318 0.00159 0.00318 0 
28 0.10316 0.00206 0.10316 0.00157 
44 0.13646 0.0127 0.10646 0.0127 
60 0.13806 0.00399 0.13806 0.00448 
13 0.00953 0 0.00953 0.00953 
29 0.10269 0.00206 0.10316 0.00206 
45 0.13853 0.00036 0.13806 0.00036 
14 0.00953 0.00953 0.0127 0.00953 
30 0.10269 0.00157 0.10269 0.00206 
46 0.13853 0.00085 0.13853 0.00036 
15 0.0127 0.00953 0.0127 0 
31 0.10316 0.00278 0.10269 0.00278 
47 0.13806 0.00085 0.13853 0.00085 
16 0.0127 0 0.00953 0 
32 0.10316 0.00327 0.10316 0.00278 
48 0.13806 0.00036 0.13806 0.00085 
