ITEM: TIMESTEP
2600000
ITEM: NUMBER OF SURFS
38
ITEM: BOX BOUNDS oo ao pp
0 0.35
0 0.03
-0.1 0.1
ITEM: SURFS id v1x v1y v2x v2y 
1 0.00635 0.00159 0.00318 0.00159 
25 0.10769 0.00084 0.10817 0.00084 
2 0.00635 0.0127 0.00635 0.00159 
26 0.10769 0.00036 0.10769 0.00084 
3 0.01905 0.0127 0.00635 0.0127 
27 0.10817 0.00157 0.10769 0.00157 
4 0.01905 0.02159 0.01905 0.0127 
28 0.10817 0.00205 0.10817 0.00157 
5 0.0635 0.02159 0.01905 0.02159 
29 0.10769 0.00205 0.10817 0.00205 
6 0.0635 0.0035 0.0635 0.02159 
30 0.10769 0.00157 0.10769 0.00205 
7 0.06509 0.0035 0.0635 0.0035 
31 0.10817 0.00278 0.10769 0.00278 
8 0.06509 0.0254 0.06509 0.0035 
32 0.10817 0.00326 0.10817 0.00278 
9 0 0.0254 0.06509 0.0254 
33 0.10769 0.00326 0.10817 0.00326 
10 0 0 0 0.0254 
34 0.10769 0.00278 0.10769 0.00326 
11 0.00318 0 0 0 
35 0.10817 0.00399 0.10769 0.00399 
12 0.00318 0.00159 0.00318 0 
36 0.10817 0.00447 0.10817 0.00399 
13 0.00953 0 0.00953 0.00953 
37 0.10769 0.00447 0.10817 0.00447 
14 0.00953 0.00953 0.0127 0.00953 
38 0.10769 0.00399 0.10769 0.00447 
15 0.0127 0.00953 0.0127 0 
16 0.0127 0 0.00953 0 
17 0.10709 0.0127 0.06709 0.0127 
18 0.10709 0.0045 0.10709 0.0127 
19 0.10769 0.0045 0.10709 0.0045 
20 0.10769 0.02223 0.10769 0.0045 
21 0.06709 0.02223 0.10769 0.02223 
22 0.06709 0.0127 0.06709 0.02223 
23 0.10817 0.00036 0.10769 0.00036 
24 0.10817 0.00084 0.10817 0.00036 
