ITEM: TIMESTEP
400000
ITEM: NUMBER OF CELLS
29785
ITEM: BOX BOUNDS oo ao pp
0 0.12
0 0.03
-0.1 0.1
ITEM: CELLS xc yc f_out[1] f_out[2] f_out[3] f_out[4] f_out[5] f_out[6] 
0.003 0.00375 0 0 0 0 0 0 
0.003 0.00525 0 0 0 0 0 0 
0.003 0.00675 0 0 0 0 0 0 
0.003 0.00825 0 0 0 0 0 0 
0.003 0.00975 0 0 0 0 0 0 
0.003 0.01125 0 0 0 0 0 0 
0.003 0.01275 0 0 0 0 0 0 
0.003 0.01425 0 0 0 0 0 0 
0.003 0.01575 0 0 0 0 0 0 
0.003 0.01725 0 0 0 0 0 0 
0.003 0.01875 0 0 0 0 0 0 
0.003 0.02025 0 0 0 0 0 0 
0.003 0.02175 0 0 0 0 0 0 
0.003 0.02325 0 0 0 0 0 0 
0.027 0.02325 0 0 0 0 0 0 
0.003 0.02475 0 0 0 0 0 0 
0.027 0.02475 0 0 0 0 0 0 
0.003 0.02625 0 0 0 0 0 0 
0.027 0.02625 0 0 0 0 0 0 
0.003 0.02775 0 0 0 0 0 0 
0.027 0.02775 0 0 0 0 0 0 
0.003 0.02925 0 0 0 0 0 0 
0.027 0.02925 0 0 0 0 0 0 
0.009 0.01425 0 0 0 0 0 0 
0.009 0.01575 0 0 0 0 0 0 
0.009 0.01725 0 0 0 0 0 0 
0.009 0.01875 0 0 0 0 0 0 
0.009 0.02025 0 0 0 0 0 0 
0.009 0.02175 0 0 0 0 0 0 
0.009 0.02325 0 0 0 0 0 0 
0.009 0.02475 0 0 0 0 0 0 
0.009 0.02625 0 0 0 0 0 0 
0.009 0.02775 0 0 0 0 0 0 
0.009 0.02925 0 0 0 0 0 0 
0.015 0.01425 0 0 0 0 0 0 
0.015 0.01575 0 0 0 0 0 0 
0.015 0.01725 0 0 0 0 0 0 
0.015 0.01875 0 0 0 0 0 0 
0.015 0.02025 0 0 0 0 0 0 
0.015 0.02175 0 0 0 0 0 0 
0.015 0.02325 0 0 0 0 0 0 
0.015 0.02475 0 0 0 0 0 0 
0.015 0.02625 0 0 0 0 0 0 
0.015 0.02775 0 0 0 0 0 0 
0.015 0.02925 0 0 0 0 0 0 
0.021 0.02325 0 0 0 0 0 0 
0.021 0.02475 0 0 0 0 0 0 
0.021 0.02625 0 0 0 0 0 0 
0.021 0.02775 0 0 0 0 0 0 
0.021 0.02925 0 0 0 0 0 0 
0.0015 0.000375 0 0 0 0 0 0 
0.0015 0.001125 0 0 0 0 0 0 
0.0015 0.001875 0 0 0 0 0 0 
0.0015 0.002625 0 0 0 0 0 0 
0.0045 0.002625 0 0 0 0 0 0 
0.0255 0.022125 0 0 0 0 0 0 
0.0285 0.022125 0 0 0 0 0 0 
0.0105 0.000375 0 0 0 0 0 0 
0.0075 0.013125 0 0 0 0 0 0 
0.0105 0.013125 0 0 0 0 0 0 
0.0135 0.013125 0 0 0 0 0 0 
0.0165 0.013125 0 0 0 0 0 0 
0.0195 0.022125 0 0 0 0 0 0 
0.0225 0.022125 0 0 0 0 0 0 
0.00375 0.0001875 0 0 0 0 0 0 
0.00525 0.0001875 0 0 0 0 0 0 
0.00375 0.0020625 0 0 0 0 0 0 
0.00525 0.0020625 0 0 0 0 0 0 
0.00675 0.0001875 0 0 0 0 0 0 
0.00825 0.0001875 0 0 0 0 0 0 
0.00675 0.0005625 0 0 0 0 0 0 
0.00825 0.0005625 0 0 0 0 0 0 
0.01125 0.0031875 0 0 0 0 0 0 
0.01125 0.0035625 0 0 0 0 0 0 
0.01125 0.0046875 0 0 0 0 0 0 
0.01125 0.0050625 0 0 0 0 0 0 
0.01125 0.0061875 0 0 0 0 0 0 
0.01125 0.0065625 0 0 0 0 0 0 
0.01125 0.0069375 0 0 0 0 0 0 
0.01125 0.0073125 0 0 0 0 0 0 
0.01125 0.0076875 0 0 0 0 0 0 
0.01125 0.0080625 0 0 0 0 0 0 
0.01125 0.0084375 0 0 0 0 0 0 
0.01125 0.0088125 0 0 0 0 0 0 
0.01125 0.0091875 0 0 0 0 0 0 
0.0195 0.000375 0 0 0 0 0 0 
0.0225 0.000375 0 0 0 0 0 0 
0.01125 0.0039375 0 0 0 0 0 0 
0.01125 0.0043125 0 0 0 0 0 0 
0.01125 0.0054375 0 0 0 0 0 0 
0.01125 0.0058125 0 0 0 0 0 0 
0.01275 0.0016875 0 0 0 0 0 0 
0.01275 0.0020625 0 0 0 0 0 0 
0.02175 0.0016875 0 0 0 0 0 0 
0.003375 0.00046875 0 0 0 0 0 0 
0.004125 0.00046875 0 0 0 0 0 0 
0.003375 0.00065625 0 0 0 0 0 0 
0.004125 0.00065625 0 0 0 0 0 0 
0.004875 0.00046875 0 0 0 0 0 0 
0.005625 0.00046875 0 0 0 0 0 0 
0.004875 0.00065625 0 0 0 0 0 0 
0.005625 0.00065625 0 0 0 0 0 0 
0.003375 0.00084375 0 0 0 0 0 0 
0.004125 0.00084375 0 0 0 0 0 0 
0.003375 0.00103125 0 0 0 0 0 0 
0.004125 0.00103125 0 0 0 0 0 0 
0.004875 0.00084375 0 0 0 0 0 0 
0.005625 0.00084375 0 0 0 0 0 0 
0.004875 0.00103125 0 0 0 0 0 0 
0.005625 0.00103125 0 0 0 0 0 0 
0.003375 0.00121875 0 0 0 0 0 0 
0.003375 0.00140625 0 0 0 0 0 0 
0.004875 0.00121875 0 0 0 0 0 0 
0.005625 0.00121875 0 0 0 0 0 0 
0.005625 0.00140625 0 0 0 0 0 0 
0.027375 0.00496875 0 0 0 0 0 0 
0.027375 0.00515625 0 0 0 0 0 0 
0.028125 0.00515625 0 0 0 0 0 0 
0.025125 0.00534375 0 0 0 0 0 0 
0.025125 0.00553125 0 0 0 0 0 0 
0.028875 0.00571875 0 0 0 0 0 0 
0.029625 0.00571875 0 0 0 0 0 0 
0.024375 0.00609375 0 0 0 0 0 0 
0.024375 0.00628125 0 0 0 0 0 0 
0.024375 0.00665625 0 0 0 0 0 0 
0.029625 0.00665625 0 0 0 0 0 0 
0.024375 0.0216562 0 0 0 0 0 0 
0.025125 0.0216562 0 0 0 0 0 0 
0.025875 0.0216562 0 0 0 0 0 0 
0.026625 0.0216562 0 0 0 0 0 0 
0.027375 0.0216562 0 0 0 0 0 0 
0.028125 0.0216562 0 0 0 0 0 0 
0.028875 0.0216562 0 0 0 0 0 0 
0.029625 0.0216562 0 0 0 0 0 0 
0.006375 0.00121875 0 0 0 0 0 0 
0.007125 0.00121875 0 0 0 0 0 0 
0.006375 0.00140625 0 0 0 0 0 0 
0.007125 0.00140625 0 0 0 0 0 0 
0.006375 0.00159375 0 0 0 0 0 0 
0.007125 0.00159375 0 0 0 0 0 0 
0.006375 0.00178125 0 0 0 0 0 0 
0.007125 0.00178125 0 0 0 0 0 0 
0.006375 0.00196875 0 0 0 0 0 0 
0.007125 0.00196875 0 0 0 0 0 0 
0.006375 0.00215625 0 0 0 0 0 0 
0.007125 0.00215625 0 0 0 0 0 0 
0.007875 0.00271875 0 0 0 0 0 0 
0.008625 0.00271875 0 0 0 0 0 0 
0.007875 0.00290625 0 0 0 0 0 0 
0.008625 0.00290625 0 0 0 0 0 0 
0.007875 0.00346875 0 0 0 0 0 0 
0.007875 0.00365625 0 0 0 0 0 0 
0.008625 0.00365625 0 0 0 0 0 0 
0.006375 0.00384375 0 0 0 0 0 0 
0.006375 0.00403125 0 0 0 0 0 0 
0.007125 0.00403125 0 0 0 0 0 0 
0.007875 0.00384375 0 0 0 0 0 0 
0.007875 0.00403125 0 0 0 0 0 0 
0.006375 0.00421875 0 0 0 0 0 0 
0.006375 0.00440625 0 0 0 0 0 0 
0.007875 0.00421875 0 0 0 0 0 0 
0.008625 0.00478125 0 0 0 0 0 0 
0.006375 0.00534375 0 0 0 0 0 0 
0.006375 0.00553125 0 0 0 0 0 0 
0.006375 0.00571875 0 0 0 0 0 0 
0.006375 0.00590625 0 0 0 0 0 0 
0.006375 0.00646875 0 0 0 0 0 0 
0.006375 0.00665625 0 0 0 0 0 0 
0.009375 0.00646875 0 0 0 0 0 0 
0.010125 0.00646875 0 0 0 0 0 0 
0.010125 0.00665625 0 0 0 0 0 0 
0.006375 0.00684375 0 0 0 0 0 0 
0.006375 0.00703125 0 0 0 0 0 0 
0.006375 0.00721875 0 0 0 0 0 0 
0.006375 0.00740625 0 0 0 0 0 0 
0.006375 0.00759375 0 0 0 0 0 0 
0.006375 0.00778125 0 0 0 0 0 0 
0.006375 0.00815625 0 0 0 0 0 0 
0.006375 0.00928125 0 0 0 0 0 0 
0.006375 0.00946875 0 0 0 0 0 0 
0.010125 0.00909375 0 0 0 0 0 0 
0.010125 0.00928125 0 0 0 0 0 0 
0.010125 0.00946875 0 0 0 0 0 0 
0.010875 0.00946875 0 0 0 0 0 0 
0.011625 0.00946875 0 0 0 0 0 0 
0.006375 0.0100312 0 0 0 0 0 0 
0.006375 0.0102187 0 0 0 0 0 0 
0.006375 0.0104062 0 0 0 0 0 0 
0.006375 0.0126563 0 0 0 0 0 0 
0.015375 0.00534375 0 0 0 0 0 0 
0.016125 0.00534375 0 0 0 0 0 0 
0.015375 0.00609375 0 0 0 0 0 0 
0.016125 0.00609375 0 0 0 0 0 0 
0.015375 0.00628125 0 0 0 0 0 0 
0.017625 0.00609375 0 0 0 0 0 0 
0.017625 0.00628125 0 0 0 0 0 0 
0.012375 0.00909375 0 0 0 0 0 0 
0.012375 0.00928125 0 0 0 0 0 0 
0.012375 0.00946875 0 0 0 0 0 0 
0.018375 0.00571875 0 0 0 0 0 0 
0.019125 0.00571875 0 0 0 0 0 0 
0.018375 0.00590625 0 0 0 0 0 0 
0.019125 0.00590625 0 0 0 0 0 0 
0.022125 0.00571875 0 0 0 0 0 0 
0.019875 0.00609375 0 0 0 0 0 0 
0.019875 0.00628125 0 0 0 0 0 0 
0.023625 0.00628125 0 0 0 0 0 0 
0.018375 0.0192187 0 0 0 0 0 0 
0.018375 0.0194062 0 0 0 0 0 0 
0.018375 0.0199687 0 0 0 0 0 0 
0.018375 0.0201562 0 0 0 0 0 0 
0.018375 0.0210937 0 0 0 0 0 0 
0.018375 0.0212812 0 0 0 0 0 0 
0.019875 0.0216562 0 0 0 0 0 0 
0.020625 0.0216562 0 0 0 0 0 0 
0.021375 0.0216562 0 0 0 0 0 0 
0.022125 0.0216562 0 0 0 0 0 0 
0.022875 0.0216562 0 0 0 0 0 0 
0.023625 0.0216562 0 0 0 0 0 0 
0.01125 0.0024375 0 0 0 0 0 0 
0.01125 0.0028125 0 0 0 0 0 0 
0.025875 0.00496875 0 0 0 0 0 0 
0.026625 0.00496875 0 0 0 0 0 0 
0.026625 0.00515625 0 0 0 0 0 0 
0.027375 0.00459375 0 0 0 0 0 0 
0.028125 0.00459375 0 0 0 0 0 0 
0.027375 0.00478125 0 0 0 0 0 0 
0.028125 0.00478125 0 0 0 0 0 0 
0.028875 0.00496875 0 0 0 0 0 0 
0.029625 0.00496875 0 0 0 0 0 0 
0.028875 0.00515625 0 0 0 0 0 0 
0.029625 0.00515625 0 0 0 0 0 0 
0.024375 0.00590625 0 0 0 0 0 0 
0.025125 0.00590625 0 0 0 0 0 0 
0.027375 0.00534375 0 0 0 0 0 0 
0.028125 0.00534375 0 0 0 0 0 0 
0.028125 0.00553125 0 0 0 0 0 0 
0.025875 0.00609375 0 0 0 0 0 0 
0.026625 0.00609375 0 0 0 0 0 0 
0.025875 0.00646875 0 0 0 0 0 0 
0.007875 0.00234375 0 0 0 0 0 0 
0.008625 0.00234375 0 0 0 0 0 0 
0.007875 0.00253125 0 0 0 0 0 0 
0.008625 0.00253125 0 0 0 0 0 0 
0.006375 0.00309375 0 0 0 0 0 0 
0.007125 0.00309375 0 0 0 0 0 0 
0.006375 0.00328125 0 0 0 0 0 0 
0.007125 0.00328125 0 0 0 0 0 0 
0.007875 0.00309375 0 0 0 0 0 0 
0.008625 0.00309375 0 0 0 0 0 0 
0.007875 0.00328125 0 0 0 0 0 0 
0.008625 0.00328125 0 0 0 0 0 0 
0.006375 0.00346875 0 0 0 0 0 0 
0.007125 0.00346875 0 0 0 0 0 0 
0.006375 0.00365625 0 0 0 0 0 0 
0.007125 0.00365625 0 0 0 0 0 0 
0.006375 0.00459375 0 0 0 0 0 0 
0.006375 0.00478125 0 0 0 0 0 0 
0.006375 0.00496875 0 0 0 0 0 0 
0.006375 0.00515625 0 0 0 0 0 0 
0.006375 0.00609375 0 0 0 0 0 0 
0.006375 0.00628125 0 0 0 0 0 0 
0.010125 0.00684375 0 0 0 0 0 0 
0.009375 0.00703125 0 0 0 0 0 0 
0.010125 0.00703125 0 0 0 0 0 0 
0.010125 0.00721875 0 0 0 0 0 0 
0.010125 0.00740625 0 0 0 0 0 0 
0.010125 0.00871875 0 0 0 0 0 0 
0.010125 0.00890625 0 0 0 0 0 0 
0.013875 0.00421875 0 0 0 0 0 0 
0.014625 0.00421875 0 0 0 0 0 0 
0.014625 0.00440625 0 0 0 0 0 0 
0.015375 0.00384375 0 0 0 0 0 0 
0.016125 0.00384375 0 0 0 0 0 0 
0.015375 0.00403125 0 0 0 0 0 0 
0.016125 0.00403125 0 0 0 0 0 0 
0.017625 0.00421875 0 0 0 0 0 0 
0.013875 0.00496875 0 0 0 0 0 0 
0.014625 0.00496875 0 0 0 0 0 0 
0.013875 0.00515625 0 0 0 0 0 0 
0.014625 0.00515625 0 0 0 0 0 0 
0.015375 0.00459375 0 0 0 0 0 0 
0.016125 0.00459375 0 0 0 0 0 0 
0.015375 0.00478125 0 0 0 0 0 0 
0.016125 0.00478125 0 0 0 0 0 0 
0.013875 0.00534375 0 0 0 0 0 0 
0.014625 0.00534375 0 0 0 0 0 0 
0.013875 0.00553125 0 0 0 0 0 0 
0.014625 0.00553125 0 0 0 0 0 0 
0.013875 0.00571875 0 0 0 0 0 0 
0.014625 0.00571875 0 0 0 0 0 0 
0.013875 0.00590625 0 0 0 0 0 0 
0.014625 0.00590625 0 0 0 0 0 0 
0.016875 0.00553125 0 0 0 0 0 0 
0.017625 0.00553125 0 0 0 0 0 0 
0.016125 0.00571875 0 0 0 0 0 0 
0.015375 0.00590625 0 0 0 0 0 0 
0.013875 0.00628125 0 0 0 0 0 0 
0.015375 0.00646875 0 0 0 0 0 0 
0.012375 0.00796875 0 0 0 0 0 0 
0.012375 0.00815625 0 0 0 0 0 0 
0.018375 0.00421875 0 0 0 0 0 0 
0.019125 0.00421875 0 0 0 0 0 0 
0.018375 0.00440625 0 0 0 0 0 0 
0.019125 0.00440625 0 0 0 0 0 0 
0.018375 0.00459375 0 0 0 0 0 0 
0.019125 0.00459375 0 0 0 0 0 0 
0.019125 0.00478125 0 0 0 0 0 0 
0.018375 0.00496875 0 0 0 0 0 0 
0.019125 0.00496875 0 0 0 0 0 0 
0.019125 0.00515625 0 0 0 0 0 0 
0.022125 0.00496875 0 0 0 0 0 0 
0.021375 0.00515625 0 0 0 0 0 0 
0.019125 0.00534375 0 0 0 0 0 0 
0.020625 0.00553125 0 0 0 0 0 0 
0.019875 0.00571875 0 0 0 0 0 0 
0.021375 0.00534375 0 0 0 0 0 0 
0.022125 0.00534375 0 0 0 0 0 0 
0.023625 0.00534375 0 0 0 0 0 0 
0.022875 0.00553125 0 0 0 0 0 0 
0.020625 0.00646875 0 0 0 0 0 0 
0.021375 0.00684375 0 0 0 0 0 0 
0.023625 0.00684375 0 0 0 0 0 0 
0.018375 0.0139688 0 0 0 0 0 0 
0.018375 0.0141563 0 0 0 0 0 0 
0.018375 0.0143437 0 0 0 0 0 0 
0.018375 0.0145312 0 0 0 0 0 0 
0.018375 0.0154687 0 0 0 0 0 0 
0.018375 0.0156563 0 0 0 0 0 0 
0.018375 0.0165937 0 0 0 0 0 0 
0.018375 0.0167812 0 0 0 0 0 0 
0.018375 0.0169687 0 0 0 0 0 0 
0.018375 0.0171562 0 0 0 0 0 0 
0.018375 0.0173437 0 0 0 0 0 0 
0.018375 0.0175312 0 0 0 0 0 0 
0.018375 0.0177187 0 0 0 0 0 0 
0.018375 0.0179062 0 0 0 0 0 0 
0.018375 0.0180937 0 0 0 0 0 0 
0.018375 0.0182812 0 0 0 0 0 0 
0.018375 0.0184687 0 0 0 0 0 0 
0.018375 0.0186562 0 0 0 0 0 0 
0.018375 0.0195938 0 0 0 0 0 0 
0.018375 0.0197812 0 0 0 0 0 0 
0.018375 0.0207187 0 0 0 0 0 0 
0.018375 0.0209062 0 0 0 0 0 0 
0.02475 0.0009375 0 0 0 0 0 0 
0.02625 0.0009375 0 0 0 0 0 0 
0.02175 0.0009375 0 0 0 0 0 0 
0.02325 0.0009375 0 0 0 0 0 0 
0.02175 0.0013125 0 0 0 0 0 0 
0.02325 0.0013125 0 0 0 0 0 0 
0.0271875 0.0122344 0 0 0 0 0 0 
0.0275625 0.0122344 0 0 0 0 0 0 
0.0271875 0.0123281 0 0 0 0 0 0 
0.0275625 0.0123281 0 0 0 0 0 0 
0.0279375 0.0122344 0 0 0 0 0 0 
0.0283125 0.0122344 0 0 0 0 0 0 
0.0279375 0.0123281 0 0 0 0 0 0 
0.0283125 0.0123281 0 0 0 0 0 0 
0.0286875 0.0126094 0 0 0 0 0 0 
0.0290625 0.0126094 0 0 0 0 0 0 
0.0286875 0.0127031 0 0 0 0 0 0 
0.0290625 0.0127031 0 0 0 0 0 0 
0.0241875 0.0131719 0 0 0 0 0 0 
0.0245625 0.0131719 0 0 0 0 0 0 
0.0241875 0.0132656 0 0 0 0 0 0 
0.0245625 0.0132656 0 0 0 0 0 0 
0.0241875 0.0142969 0 0 0 0 0 0 
0.0245625 0.0142969 0 0 0 0 0 0 
0.0241875 0.0143906 0 0 0 0 0 0 
0.0245625 0.0143906 0 0 0 0 0 0 
0.0249375 0.0142969 0 0 0 0 0 0 
0.0253125 0.0142969 0 0 0 0 0 0 
0.0249375 0.0143906 0 0 0 0 0 0 
0.0253125 0.0143906 0 0 0 0 0 0 
0.0249375 0.0146719 0 0 0 0 0 0 
0.0253125 0.0146719 0 0 0 0 0 0 
0.0249375 0.0147656 0 0 0 0 0 0 
0.0253125 0.0147656 0 0 0 0 0 0 
0.0256875 0.0146719 0 0 0 0 0 0 
0.0260625 0.0146719 0 0 0 0 0 0 
0.0256875 0.0147656 0 0 0 0 0 0 
0.0260625 0.0147656 0 0 0 0 0 0 
0.0256875 0.0156094 0 0 0 0 0 0 
0.0260625 0.0156094 0 0 0 0 0 0 
0.0256875 0.0157031 0 0 0 0 0 0 
0.0260625 0.0157031 0 0 0 0 0 0 
0.0286875 0.0154219 0 0 0 0 0 0 
0.0290625 0.0154219 0 0 0 0 0 0 
0.0286875 0.0155156 0 0 0 0 0 0 
0.0290625 0.0155156 0 0 0 0 0 0 
0.0264375 0.0159844 0 0 0 0 0 0 
0.0268125 0.0159844 0 0 0 0 0 0 
0.0264375 0.0160781 0 0 0 0 0 0 
0.0268125 0.0160781 0 0 0 0 0 0 
0.0241875 0.0161719 0 0 0 0 0 0 
0.0245625 0.0161719 0 0 0 0 0 0 
0.0241875 0.0162656 0 0 0 0 0 0 
0.0245625 0.0162656 0 0 0 0 0 0 
0.0256875 0.0161719 0 0 0 0 0 0 
0.0260625 0.0161719 0 0 0 0 0 0 
0.0260625 0.0162656 0 0 0 0 0 0 
0.0264375 0.0161719 0 0 0 0 0 0 
0.0268125 0.0161719 0 0 0 0 0 0 
0.0264375 0.0162656 0 0 0 0 0 0 
0.0268125 0.0162656 0 0 0 0 0 0 
0.0256875 0.0163594 0 0 0 0 0 0 
0.0260625 0.0163594 0 0 0 0 0 0 
0.0256875 0.0164531 0 0 0 0 0 0 
0.0260625 0.0164531 0 0 0 0 0 0 
0.0271875 0.0161719 0 0 0 0 0 0 
0.0275625 0.0161719 0 0 0 0 0 0 
0.0271875 0.0162656 0 0 0 0 0 0 
0.0275625 0.0162656 0 0 0 0 0 0 
0.0271875 0.0163594 0 0 0 0 0 0 
0.0275625 0.0163594 0 0 0 0 0 0 
0.0271875 0.0164531 0 0 0 0 0 0 
0.0275625 0.0164531 0 0 0 0 0 0 
0.0256875 0.0165469 0 0 0 0 0 0 
0.0260625 0.0165469 0 0 0 0 0 0 
0.0260625 0.0166406 0 0 0 0 0 0 
0.0264375 0.0165469 0 0 0 0 0 0 
0.0268125 0.0165469 0 0 0 0 0 0 
0.0264375 0.0166406 0 0 0 0 0 0 
0.0268125 0.0166406 0 0 0 0 0 0 
0.0264375 0.0167344 0 0 0 0 0 0 
0.0268125 0.0167344 0 0 0 0 0 0 
0.0264375 0.0168281 0 0 0 0 0 0 
0.0268125 0.0168281 0 0 0 0 0 0 
0.0241875 0.0169219 0 0 0 0 0 0 
0.0241875 0.0170156 0 0 0 0 0 0 
0.0245625 0.0170156 0 0 0 0 0 0 
0.0249375 0.0169219 0 0 0 0 0 0 
0.0253125 0.0169219 0 0 0 0 0 0 
0.0249375 0.0170156 0 0 0 0 0 0 
0.0253125 0.0170156 0 0 0 0 0 0 
0.0264375 0.0171094 0 0 0 0 0 0 
0.0268125 0.0171094 0 0 0 0 0 0 
0.0264375 0.0172031 0 0 0 0 0 0 
0.0268125 0.0172031 0 0 0 0 0 0 
0.0279375 0.0167344 0 0 0 0 0 0 
0.0279375 0.0168281 0 0 0 0 0 0 
0.0283125 0.0168281 0 0 0 0 0 0 
0.0286875 0.0165469 0 0 0 0 0 0 
0.0286875 0.0166406 0 0 0 0 0 0 
0.0290625 0.0166406 0 0 0 0 0 0 
0.0279375 0.0169219 0 0 0 0 0 0 
0.0283125 0.0169219 0 0 0 0 0 0 
0.0279375 0.0170156 0 0 0 0 0 0 
0.0283125 0.0170156 0 0 0 0 0 0 
0.0264375 0.0172969 0 0 0 0 0 0 
0.0268125 0.0172969 0 0 0 0 0 0 
0.0264375 0.0173906 0 0 0 0 0 0 
0.0268125 0.0173906 0 0 0 0 0 0 
0.0249375 0.0176719 0 0 0 0 0 0 
0.0253125 0.0176719 0 0 0 0 0 0 
0.0249375 0.0177656 0 0 0 0 0 0 
0.0253125 0.0177656 0 0 0 0 0 0 
0.0260625 0.0178594 0 0 0 0 0 0 
0.0256875 0.0179531 0 0 0 0 0 0 
0.0260625 0.0179531 0 0 0 0 0 0 
0.0271875 0.0172969 0 0 0 0 0 0 
0.0275625 0.0172969 0 0 0 0 0 0 
0.0271875 0.0173906 0 0 0 0 0 0 
0.0275625 0.0173906 0 0 0 0 0 0 
0.0290625 0.0174844 0 0 0 0 0 0 
0.0286875 0.0175781 0 0 0 0 0 0 
0.0290625 0.0175781 0 0 0 0 0 0 
0.0294375 0.0174844 0 0 0 0 0 0 
0.0298125 0.0174844 0 0 0 0 0 0 
0.0294375 0.0175781 0 0 0 0 0 0 
0.0298125 0.0175781 0 0 0 0 0 0 
0.0283125 0.0176719 0 0 0 0 0 0 
0.0279375 0.0177656 0 0 0 0 0 0 
0.0283125 0.0177656 0 0 0 0 0 0 
0.0279375 0.0178594 0 0 0 0 0 0 
0.0283125 0.0178594 0 0 0 0 0 0 
0.0279375 0.0179531 0 0 0 0 0 0 
0.0283125 0.0179531 0 0 0 0 0 0 
0.0294375 0.0178594 0 0 0 0 0 0 
0.0298125 0.0178594 0 0 0 0 0 0 
0.0294375 0.0179531 0 0 0 0 0 0 
0.0298125 0.0179531 0 0 0 0 0 0 
0.0241875 0.0182344 0 0 0 0 0 0 
0.0245625 0.0182344 0 0 0 0 0 0 
0.0241875 0.0183281 0 0 0 0 0 0 
0.0245625 0.0183281 0 0 0 0 0 0 
0.0264375 0.0182344 0 0 0 0 0 0 
0.0268125 0.0182344 0 0 0 0 0 0 
0.0264375 0.0183281 0 0 0 0 0 0 
0.0268125 0.0183281 0 0 0 0 0 0 
0.0271875 0.0180469 0 0 0 0 0 0 
0.0275625 0.0180469 0 0 0 0 0 0 
0.0271875 0.0181406 0 0 0 0 0 0 
0.0275625 0.0181406 0 0 0 0 0 0 
0.0279375 0.0182344 0 0 0 0 0 0 
0.0279375 0.0183281 0 0 0 0 0 0 
0.0283125 0.0183281 0 0 0 0 0 0 
0.0290625 0.0180469 0 0 0 0 0 0 
0.0286875 0.0181406 0 0 0 0 0 0 
0.0283125 0.0186094 0 0 0 0 0 0 
0.0279375 0.0187031 0 0 0 0 0 0 
0.0283125 0.0187031 0 0 0 0 0 0 
0.0298125 0.0184219 0 0 0 0 0 0 
0.0294375 0.0185156 0 0 0 0 0 0 
0.0298125 0.0185156 0 0 0 0 0 0 
0.0294375 0.0186094 0 0 0 0 0 0 
0.0298125 0.0186094 0 0 0 0 0 0 
0.0294375 0.0187031 0 0 0 0 0 0 
0.0249375 0.0187969 0 0 0 0 0 0 
0.0253125 0.0187969 0 0 0 0 0 0 
0.0249375 0.0188906 0 0 0 0 0 0 
0.0253125 0.0188906 0 0 0 0 0 0 
0.0264375 0.0187969 0 0 0 0 0 0 
0.0268125 0.0187969 0 0 0 0 0 0 
0.0264375 0.0188906 0 0 0 0 0 0 
0.0268125 0.0188906 0 0 0 0 0 0 
0.0249375 0.0191719 0 0 0 0 0 0 
0.0253125 0.0191719 0 0 0 0 0 0 
0.0249375 0.0193594 0 0 0 0 0 0 
0.0253125 0.0193594 0 0 0 0 0 0 
0.0249375 0.0194531 0 0 0 0 0 0 
0.0253125 0.0194531 0 0 0 0 0 0 
0.0264375 0.0191719 0 0 0 0 0 0 
0.0264375 0.0192656 0 0 0 0 0 0 
0.0256875 0.0193594 0 0 0 0 0 0 
0.0260625 0.0193594 0 0 0 0 0 0 
0.0256875 0.0194531 0 0 0 0 0 0 
0.0260625 0.0194531 0 0 0 0 0 0 
0.0264375 0.0193594 0 0 0 0 0 0 
0.0268125 0.0193594 0 0 0 0 0 0 
0.0264375 0.0194531 0 0 0 0 0 0 
0.0279375 0.0187969 0 0 0 0 0 0 
0.0279375 0.0188906 0 0 0 0 0 0 
0.0294375 0.0187969 0 0 0 0 0 0 
0.0298125 0.0187969 0 0 0 0 0 0 
0.0286875 0.0189844 0 0 0 0 0 0 
0.0290625 0.0189844 0 0 0 0 0 0 
0.0290625 0.0190781 0 0 0 0 0 0 
0.0294375 0.0189844 0 0 0 0 0 0 
0.0294375 0.0190781 0 0 0 0 0 0 
0.0298125 0.0190781 0 0 0 0 0 0 
0.0279375 0.0193594 0 0 0 0 0 0 
0.0283125 0.0193594 0 0 0 0 0 0 
0.0279375 0.0194531 0 0 0 0 0 0 
0.0283125 0.0194531 0 0 0 0 0 0 
0.0294375 0.0191719 0 0 0 0 0 0 
0.0298125 0.0191719 0 0 0 0 0 0 
0.0294375 0.0192656 0 0 0 0 0 0 
0.0298125 0.0192656 0 0 0 0 0 0 
0.0290625 0.0193594 0 0 0 0 0 0 
0.0286875 0.0194531 0 0 0 0 0 0 
0.0290625 0.0194531 0 0 0 0 0 0 
0.0249375 0.0195469 0 0 0 0 0 0 
0.0253125 0.0195469 0 0 0 0 0 0 
0.0249375 0.0196406 0 0 0 0 0 0 
0.0256875 0.0195469 0 0 0 0 0 0 
0.0260625 0.0195469 0 0 0 0 0 0 
0.0256875 0.0196406 0 0 0 0 0 0 
0.0256875 0.0197344 0 0 0 0 0 0 
0.0256875 0.0198281 0 0 0 0 0 0 
0.0260625 0.0198281 0 0 0 0 0 0 
0.0241875 0.0199219 0 0 0 0 0 0 
0.0245625 0.0199219 0 0 0 0 0 0 
0.0245625 0.0200156 0 0 0 0 0 0 
0.0249375 0.0201094 0 0 0 0 0 0 
0.0253125 0.0201094 0 0 0 0 0 0 
0.0253125 0.0202031 0 0 0 0 0 0 
0.0271875 0.0195469 0 0 0 0 0 0 
0.0275625 0.0195469 0 0 0 0 0 0 
0.0271875 0.0197344 0 0 0 0 0 0 
0.0275625 0.0197344 0 0 0 0 0 0 
0.0275625 0.0198281 0 0 0 0 0 0 
0.0298125 0.0195469 0 0 0 0 0 0 
0.0294375 0.0196406 0 0 0 0 0 0 
0.0298125 0.0196406 0 0 0 0 0 0 
0.0294375 0.0197344 0 0 0 0 0 0 
0.0298125 0.0197344 0 0 0 0 0 0 
0.0294375 0.0198281 0 0 0 0 0 0 
0.0298125 0.0198281 0 0 0 0 0 0 
0.0275625 0.0201094 0 0 0 0 0 0 
0.0271875 0.0202031 0 0 0 0 0 0 
0.0275625 0.0202031 0 0 0 0 0 0 
0.0294375 0.0201094 0 0 0 0 0 0 
0.0298125 0.0201094 0 0 0 0 0 0 
0.0294375 0.0202031 0 0 0 0 0 0 
0.0298125 0.0202031 0 0 0 0 0 0 
0.0241875 0.0204844 0 0 0 0 0 0 
0.0245625 0.0204844 0 0 0 0 0 0 
0.0241875 0.0205781 0 0 0 0 0 0 
0.0245625 0.0205781 0 0 0 0 0 0 
0.0249375 0.0204844 0 0 0 0 0 0 
0.0253125 0.0204844 0 0 0 0 0 0 
0.0249375 0.0205781 0 0 0 0 0 0 
0.0253125 0.0205781 0 0 0 0 0 0 
0.0260625 0.0208594 0 0 0 0 0 0 
0.0256875 0.0209531 0 0 0 0 0 0 
0.0268125 0.0208594 0 0 0 0 0 0 
0.0268125 0.0209531 0 0 0 0 0 0 
0.0271875 0.0203906 0 0 0 0 0 0 
0.0271875 0.0204844 0 0 0 0 0 0 
0.0275625 0.0204844 0 0 0 0 0 0 
0.0271875 0.0205781 0 0 0 0 0 0 
0.0283125 0.0204844 0 0 0 0 0 0 
0.0279375 0.0205781 0 0 0 0 0 0 
0.0283125 0.0205781 0 0 0 0 0 0 
0.0286875 0.0202969 0 0 0 0 0 0 
0.0290625 0.0202969 0 0 0 0 0 0 
0.0290625 0.0203906 0 0 0 0 0 0 
0.0298125 0.0204844 0 0 0 0 0 0 
0.0294375 0.0205781 0 0 0 0 0 0 
0.0298125 0.0205781 0 0 0 0 0 0 
0.0279375 0.0208594 0 0 0 0 0 0 
0.0283125 0.0208594 0 0 0 0 0 0 
0.0279375 0.0209531 0 0 0 0 0 0 
0.0283125 0.0209531 0 0 0 0 0 0 
0.0290625 0.0206719 0 0 0 0 0 0 
0.0286875 0.0207656 0 0 0 0 0 0 
0.0290625 0.0207656 0 0 0 0 0 0 
0.0249375 0.0210469 0 0 0 0 0 0 
0.0249375 0.0211406 0 0 0 0 0 0 
0.0260625 0.0210469 0 0 0 0 0 0 
0.0256875 0.0211406 0 0 0 0 0 0 
0.0260625 0.0212344 0 0 0 0 0 0 
0.0260625 0.0213281 0 0 0 0 0 0 
0.0264375 0.0212344 0 0 0 0 0 0 
0.0264375 0.0213281 0 0 0 0 0 0 
0.0268125 0.0213281 0 0 0 0 0 0 
0.0253125 0.0214219 0 0 0 0 0 0 
0.0249375 0.0215156 0 0 0 0 0 0 
0.0264375 0.0214219 0 0 0 0 0 0 
0.0264375 0.0215156 0 0 0 0 0 0 
0.0271875 0.0210469 0 0 0 0 0 0 
0.0271875 0.0211406 0 0 0 0 0 0 
0.0279375 0.0210469 0 0 0 0 0 0 
0.0283125 0.0210469 0 0 0 0 0 0 
0.0271875 0.0212344 0 0 0 0 0 0 
0.0275625 0.0212344 0 0 0 0 0 0 
0.0279375 0.0212344 0 0 0 0 0 0 
0.0279375 0.0213281 0 0 0 0 0 0 
0.0286875 0.0210469 0 0 0 0 0 0 
0.0290625 0.0212344 0 0 0 0 0 0 
0.0286875 0.0213281 0 0 0 0 0 0 
0.0290625 0.0213281 0 0 0 0 0 0 
0.0294375 0.0212344 0 0 0 0 0 0 
0.0298125 0.0212344 0 0 0 0 0 0 
0.0294375 0.0213281 0 0 0 0 0 0 
0.0298125 0.0213281 0 0 0 0 0 0 
0.0294375 0.0214219 0 0 0 0 0 0 
0.0084375 0.00660938 0 0 0 0 0 0 
0.0088125 0.00660938 0 0 0 0 0 0 
0.0084375 0.00670313 0 0 0 0 0 0 
0.0088125 0.00670313 0 0 0 0 0 0 
0.0084375 0.00792188 0 0 0 0 0 0 
0.0088125 0.00792188 0 0 0 0 0 0 
0.0084375 0.00801563 0 0 0 0 0 0 
0.0088125 0.00801563 0 0 0 0 0 0 
0.0069375 0.00942187 0 0 0 0 0 0 
0.0073125 0.00942187 0 0 0 0 0 0 
0.0069375 0.00951562 0 0 0 0 0 0 
0.0073125 0.00951562 0 0 0 0 0 0 
0.0069375 0.00960937 0 0 0 0 0 0 
0.0073125 0.00960937 0 0 0 0 0 0 
0.0069375 0.00970312 0 0 0 0 0 0 
0.0073125 0.00970312 0 0 0 0 0 0 
0.0069375 0.0101719 0 0 0 0 0 0 
0.0073125 0.0101719 0 0 0 0 0 0 
0.0069375 0.0102656 0 0 0 0 0 0 
0.0073125 0.0102656 0 0 0 0 0 0 
0.0091875 0.0107344 0 0 0 0 0 0 
0.0095625 0.0107344 0 0 0 0 0 0 
0.0091875 0.0108281 0 0 0 0 0 0 
0.0095625 0.0108281 0 0 0 0 0 0 
0.0114375 0.0111094 0 0 0 0 0 0 
0.0118125 0.0111094 0 0 0 0 0 0 
0.0114375 0.0112031 0 0 0 0 0 0 
0.0118125 0.0112031 0 0 0 0 0 0 
0.0069375 0.0114844 0 0 0 0 0 0 
0.0073125 0.0114844 0 0 0 0 0 0 
0.0069375 0.0115781 0 0 0 0 0 0 
0.0073125 0.0115781 0 0 0 0 0 0 
0.0084375 0.0114844 0 0 0 0 0 0 
0.0088125 0.0114844 0 0 0 0 0 0 
0.0084375 0.0115781 0 0 0 0 0 0 
0.0088125 0.0115781 0 0 0 0 0 0 
0.0084375 0.0118594 0 0 0 0 0 0 
0.0088125 0.0118594 0 0 0 0 0 0 
0.0084375 0.0119531 0 0 0 0 0 0 
0.0088125 0.0119531 0 0 0 0 0 0 
0.0091875 0.0114844 0 0 0 0 0 0 
0.0095625 0.0114844 0 0 0 0 0 0 
0.0091875 0.0115781 0 0 0 0 0 0 
0.0095625 0.0115781 0 0 0 0 0 0 
0.0091875 0.0116719 0 0 0 0 0 0 
0.0095625 0.0116719 0 0 0 0 0 0 
0.0091875 0.0117656 0 0 0 0 0 0 
0.0095625 0.0117656 0 0 0 0 0 0 
0.0076875 0.0120469 0 0 0 0 0 0 
0.0080625 0.0120469 0 0 0 0 0 0 
0.0076875 0.0121406 0 0 0 0 0 0 
0.0080625 0.0121406 0 0 0 0 0 0 
0.0099375 0.0122344 0 0 0 0 0 0 
0.0103125 0.0122344 0 0 0 0 0 0 
0.0099375 0.0123281 0 0 0 0 0 0 
0.0103125 0.0123281 0 0 0 0 0 0 
0.0144375 0.0112969 0 0 0 0 0 0 
0.0148125 0.0112969 0 0 0 0 0 0 
0.0144375 0.0113906 0 0 0 0 0 0 
0.0148125 0.0113906 0 0 0 0 0 0 
0.0129375 0.0124219 0 0 0 0 0 0 
0.0133125 0.0124219 0 0 0 0 0 0 
0.0129375 0.0125156 0 0 0 0 0 0 
0.0133125 0.0125156 0 0 0 0 0 0 
0.0136875 0.0124219 0 0 0 0 0 0 
0.0140625 0.0124219 0 0 0 0 0 0 
0.0136875 0.0125156 0 0 0 0 0 0 
0.0140625 0.0125156 0 0 0 0 0 0 
0.0211875 0.0126094 0 0 0 0 0 0 
0.0215625 0.0126094 0 0 0 0 0 0 
0.0211875 0.0127031 0 0 0 0 0 0 
0.0215625 0.0127031 0 0 0 0 0 0 
0.0204375 0.0148594 0 0 0 0 0 0 
0.0208125 0.0148594 0 0 0 0 0 0 
0.0204375 0.0149531 0 0 0 0 0 0 
0.0208125 0.0149531 0 0 0 0 0 0 
0.0204375 0.0150469 0 0 0 0 0 0 
0.0208125 0.0150469 0 0 0 0 0 0 
0.0204375 0.0151406 0 0 0 0 0 0 
0.0208125 0.0151406 0 0 0 0 0 0 
0.0211875 0.0150469 0 0 0 0 0 0 
0.0215625 0.0150469 0 0 0 0 0 0 
0.0211875 0.0151406 0 0 0 0 0 0 
0.0215625 0.0151406 0 0 0 0 0 0 
0.0219375 0.0150469 0 0 0 0 0 0 
0.0223125 0.0150469 0 0 0 0 0 0 
0.0219375 0.0151406 0 0 0 0 0 0 
0.0223125 0.0151406 0 0 0 0 0 0 
0.0219375 0.0152344 0 0 0 0 0 0 
0.0223125 0.0152344 0 0 0 0 0 0 
0.0219375 0.0153281 0 0 0 0 0 0 
0.0234375 0.0152344 0 0 0 0 0 0 
0.0238125 0.0152344 0 0 0 0 0 0 
0.0234375 0.0153281 0 0 0 0 0 0 
0.0238125 0.0153281 0 0 0 0 0 0 
0.0211875 0.0154219 0 0 0 0 0 0 
0.0215625 0.0154219 0 0 0 0 0 0 
0.0211875 0.0155156 0 0 0 0 0 0 
0.0215625 0.0155156 0 0 0 0 0 0 
0.0234375 0.0156094 0 0 0 0 0 0 
0.0238125 0.0156094 0 0 0 0 0 0 
0.0234375 0.0157031 0 0 0 0 0 0 
0.0238125 0.0157031 0 0 0 0 0 0 
0.0196875 0.0157969 0 0 0 0 0 0 
0.0200625 0.0157969 0 0 0 0 0 0 
0.0196875 0.0158906 0 0 0 0 0 0 
0.0200625 0.0158906 0 0 0 0 0 0 
0.0196875 0.0159844 0 0 0 0 0 0 
0.0200625 0.0159844 0 0 0 0 0 0 
0.0196875 0.0160781 0 0 0 0 0 0 
0.0200625 0.0160781 0 0 0 0 0 0 
0.0204375 0.0159844 0 0 0 0 0 0 
0.0208125 0.0159844 0 0 0 0 0 0 
0.0204375 0.0160781 0 0 0 0 0 0 
0.0208125 0.0160781 0 0 0 0 0 0 
0.0196875 0.0161719 0 0 0 0 0 0 
0.0200625 0.0161719 0 0 0 0 0 0 
0.0196875 0.0162656 0 0 0 0 0 0 
0.0200625 0.0162656 0 0 0 0 0 0 
0.0204375 0.0161719 0 0 0 0 0 0 
0.0208125 0.0161719 0 0 0 0 0 0 
0.0204375 0.0162656 0 0 0 0 0 0 
0.0208125 0.0162656 0 0 0 0 0 0 
0.0204375 0.0163594 0 0 0 0 0 0 
0.0208125 0.0163594 0 0 0 0 0 0 
0.0204375 0.0164531 0 0 0 0 0 0 
0.0208125 0.0164531 0 0 0 0 0 0 
0.0230625 0.0163594 0 0 0 0 0 0 
0.0226875 0.0164531 0 0 0 0 0 0 
0.0230625 0.0164531 0 0 0 0 0 0 
0.0196875 0.0165469 0 0 0 0 0 0 
0.0200625 0.0165469 0 0 0 0 0 0 
0.0196875 0.0166406 0 0 0 0 0 0 
0.0200625 0.0166406 0 0 0 0 0 0 
0.0204375 0.0167344 0 0 0 0 0 0 
0.0208125 0.0167344 0 0 0 0 0 0 
0.0204375 0.0168281 0 0 0 0 0 0 
0.0208125 0.0168281 0 0 0 0 0 0 
0.0234375 0.0165469 0 0 0 0 0 0 
0.0238125 0.0165469 0 0 0 0 0 0 
0.0234375 0.0166406 0 0 0 0 0 0 
0.0238125 0.0166406 0 0 0 0 0 0 
0.0211875 0.0171094 0 0 0 0 0 0 
0.0215625 0.0171094 0 0 0 0 0 0 
0.0211875 0.0172031 0 0 0 0 0 0 
0.0215625 0.0172031 0 0 0 0 0 0 
0.0196875 0.0172969 0 0 0 0 0 0 
0.0200625 0.0172969 0 0 0 0 0 0 
0.0196875 0.0173906 0 0 0 0 0 0 
0.0200625 0.0173906 0 0 0 0 0 0 
0.0196875 0.0176719 0 0 0 0 0 0 
0.0200625 0.0176719 0 0 0 0 0 0 
0.0196875 0.0177656 0 0 0 0 0 0 
0.0200625 0.0177656 0 0 0 0 0 0 
0.0204375 0.0176719 0 0 0 0 0 0 
0.0208125 0.0176719 0 0 0 0 0 0 
0.0204375 0.0177656 0 0 0 0 0 0 
0.0215625 0.0174844 0 0 0 0 0 0 
0.0211875 0.0175781 0 0 0 0 0 0 
0.0215625 0.0175781 0 0 0 0 0 0 
0.0219375 0.0178594 0 0 0 0 0 0 
0.0223125 0.0178594 0 0 0 0 0 0 
0.0219375 0.0179531 0 0 0 0 0 0 
0.0223125 0.0179531 0 0 0 0 0 0 
0.0204375 0.0184219 0 0 0 0 0 0 
0.0208125 0.0184219 0 0 0 0 0 0 
0.0204375 0.0185156 0 0 0 0 0 0 
0.0208125 0.0185156 0 0 0 0 0 0 
0.0200625 0.0186094 0 0 0 0 0 0 
0.0196875 0.0187031 0 0 0 0 0 0 
0.0200625 0.0187031 0 0 0 0 0 0 
0.0219375 0.0182344 0 0 0 0 0 0 
0.0223125 0.0182344 0 0 0 0 0 0 
0.0219375 0.0183281 0 0 0 0 0 0 
0.0223125 0.0183281 0 0 0 0 0 0 
0.0226875 0.0180469 0 0 0 0 0 0 
0.0230625 0.0180469 0 0 0 0 0 0 
0.0226875 0.0181406 0 0 0 0 0 0 
0.0234375 0.0182344 0 0 0 0 0 0 
0.0234375 0.0183281 0 0 0 0 0 0 
0.0238125 0.0183281 0 0 0 0 0 0 
0.0211875 0.0184219 0 0 0 0 0 0 
0.0215625 0.0184219 0 0 0 0 0 0 
0.0211875 0.0185156 0 0 0 0 0 0 
0.0215625 0.0185156 0 0 0 0 0 0 
0.0219375 0.0184219 0 0 0 0 0 0 
0.0223125 0.0184219 0 0 0 0 0 0 
0.0219375 0.0185156 0 0 0 0 0 0 
0.0223125 0.0185156 0 0 0 0 0 0 
0.0226875 0.0184219 0 0 0 0 0 0 
0.0230625 0.0184219 0 0 0 0 0 0 
0.0226875 0.0185156 0 0 0 0 0 0 
0.0230625 0.0185156 0 0 0 0 0 0 
0.0234375 0.0186094 0 0 0 0 0 0 
0.0238125 0.0186094 0 0 0 0 0 0 
0.0234375 0.0187031 0 0 0 0 0 0 
0.0196875 0.0187969 0 0 0 0 0 0 
0.0200625 0.0187969 0 0 0 0 0 0 
0.0200625 0.0188906 0 0 0 0 0 0 
0.0196875 0.0191719 0 0 0 0 0 0 
0.0200625 0.0191719 0 0 0 0 0 0 
0.0196875 0.0192656 0 0 0 0 0 0 
0.0200625 0.0192656 0 0 0 0 0 0 
0.0219375 0.0187969 0 0 0 0 0 0 
0.0223125 0.0187969 0 0 0 0 0 0 
0.0219375 0.0188906 0 0 0 0 0 0 
0.0223125 0.0188906 0 0 0 0 0 0 
0.0211875 0.0189844 0 0 0 0 0 0 
0.0215625 0.0189844 0 0 0 0 0 0 
0.0211875 0.0190781 0 0 0 0 0 0 
0.0215625 0.0190781 0 0 0 0 0 0 
0.0223125 0.0193594 0 0 0 0 0 0 
0.0223125 0.0194531 0 0 0 0 0 0 
0.0234375 0.0193594 0 0 0 0 0 0 
0.0238125 0.0193594 0 0 0 0 0 0 
0.0238125 0.0194531 0 0 0 0 0 0 
0.0208125 0.0195469 0 0 0 0 0 0 
0.0204375 0.0196406 0 0 0 0 0 0 
0.0208125 0.0197344 0 0 0 0 0 0 
0.0204375 0.0198281 0 0 0 0 0 0 
0.0208125 0.0198281 0 0 0 0 0 0 
0.0219375 0.0195469 0 0 0 0 0 0 
0.0223125 0.0195469 0 0 0 0 0 0 
0.0223125 0.0196406 0 0 0 0 0 0 
0.0226875 0.0195469 0 0 0 0 0 0 
0.0230625 0.0195469 0 0 0 0 0 0 
0.0226875 0.0196406 0 0 0 0 0 0 
0.0230625 0.0196406 0 0 0 0 0 0 
0.0238125 0.0195469 0 0 0 0 0 0 
0.0234375 0.0196406 0 0 0 0 0 0 
0.0238125 0.0196406 0 0 0 0 0 0 
0.0234375 0.0199219 0 0 0 0 0 0 
0.0238125 0.0201094 0 0 0 0 0 0 
0.0234375 0.0202031 0 0 0 0 0 0 
0.0238125 0.0202031 0 0 0 0 0 0 
0.0208125 0.0202969 0 0 0 0 0 0 
0.0208125 0.0203906 0 0 0 0 0 0 
0.0196875 0.0204844 0 0 0 0 0 0 
0.0200625 0.0204844 0 0 0 0 0 0 
0.0196875 0.0205781 0 0 0 0 0 0 
0.0196875 0.0207656 0 0 0 0 0 0 
0.0200625 0.0207656 0 0 0 0 0 0 
0.0208125 0.0206719 0 0 0 0 0 0 
0.0208125 0.0207656 0 0 0 0 0 0 
0.0204375 0.0208594 0 0 0 0 0 0 
0.0208125 0.0208594 0 0 0 0 0 0 
0.0204375 0.0209531 0 0 0 0 0 0 
0.0208125 0.0209531 0 0 0 0 0 0 
0.0211875 0.0202969 0 0 0 0 0 0 
0.0211875 0.0203906 0 0 0 0 0 0 
0.0226875 0.0202969 0 0 0 0 0 0 
0.0226875 0.0203906 0 0 0 0 0 0 
0.0226875 0.0204844 0 0 0 0 0 0 
0.0230625 0.0204844 0 0 0 0 0 0 
0.0230625 0.0205781 0 0 0 0 0 0 
0.0234375 0.0204844 0 0 0 0 0 0 
0.0238125 0.0204844 0 0 0 0 0 0 
0.0234375 0.0205781 0 0 0 0 0 0 
0.0238125 0.0205781 0 0 0 0 0 0 
0.0211875 0.0206719 0 0 0 0 0 0 
0.0215625 0.0206719 0 0 0 0 0 0 
0.0223125 0.0206719 0 0 0 0 0 0 
0.0219375 0.0207656 0 0 0 0 0 0 
0.0223125 0.0207656 0 0 0 0 0 0 
0.0211875 0.0208594 0 0 0 0 0 0 
0.0215625 0.0208594 0 0 0 0 0 0 
0.0211875 0.0209531 0 0 0 0 0 0 
0.0215625 0.0209531 0 0 0 0 0 0 
0.0234375 0.0206719 0 0 0 0 0 0 