ITEM: TIMESTEP
500000
ITEM: NUMBER OF CELLS
29785
ITEM: BOX BOUNDS oo ao pp
0 0.12
0 0.03
-0.1 0.1
ITEM: CELLS xc yc f_out[1] f_out[2] f_out[3] f_out[4] f_out[5] f_out[6] 
0.003 0.00375 0 0 0 0 0 0 
0.003 0.00525 0 0 0 0 0 0 
0.003 0.00675 0 0 0 0 0 0 
0.003 0.00825 0 0 0 0 0 0 
0.003 0.00975 0 0 0 0 0 0 
0.003 0.01125 0 0 0 0 0 0 
0.003 0.01275 0 0 0 0 0 0 
0.003 0.01425 0 0 0 0 0 0 
0.003 0.01575 0 0 0 0 0 0 
0.003 0.01725 0 0 0 0 0 0 
0.003 0.01875 0 0 0 0 0 0 
0.003 0.02025 0 0 0 0 0 0 
0.003 0.02175 0 0 0 0 0 0 
0.003 0.02325 0 0 0 0 0 0 
0.027 0.02325 0 0 0 0 0 0 
0.003 0.02475 0 0 0 0 0 0 
0.027 0.02475 0 0 0 0 0 0 
0.003 0.02625 0 0 0 0 0 0 
0.027 0.02625 0 0 0 0 0 0 
0.003 0.02775 0 0 0 0 0 0 
0.027 0.02775 0 0 0 0 0 0 
0.003 0.02925 0 0 0 0 0 0 
0.027 0.02925 0 0 0 0 0 0 
0.009 0.01425 0 0 0 0 0 0 
0.009 0.01575 0 0 0 0 0 0 
0.009 0.01725 0 0 0 0 0 0 
0.009 0.01875 0 0 0 0 0 0 
0.009 0.02025 0 0 0 0 0 0 
0.009 0.02175 0 0 0 0 0 0 
0.009 0.02325 0 0 0 0 0 0 
0.009 0.02475 0 0 0 0 0 0 
0.009 0.02625 0 0 0 0 0 0 
0.009 0.02775 0 0 0 0 0 0 
0.009 0.02925 0 0 0 0 0 0 
0.015 0.01425 0 0 0 0 0 0 
0.015 0.01575 0 0 0 0 0 0 
0.015 0.01725 0 0 0 0 0 0 
0.015 0.01875 0 0 0 0 0 0 
0.015 0.02025 0 0 0 0 0 0 
0.015 0.02175 0 0 0 0 0 0 
0.015 0.02325 0 0 0 0 0 0 
0.015 0.02475 0 0 0 0 0 0 
0.015 0.02625 0 0 0 0 0 0 
0.015 0.02775 0 0 0 0 0 0 
0.015 0.02925 0 0 0 0 0 0 
0.021 0.02325 0 0 0 0 0 0 
0.021 0.02475 0 0 0 0 0 0 
0.021 0.02625 0 0 0 0 0 0 
0.021 0.02775 0 0 0 0 0 0 
0.021 0.02925 0 0 0 0 0 0 
0.0015 0.000375 0 0 0 0 0 0 
0.0015 0.001125 0 0 0 0 0 0 
0.0015 0.001875 0 0 0 0 0 0 
0.0015 0.002625 0 0 0 0 0 0 
0.0045 0.002625 0 0 0 0 0 0 
0.0255 0.022125 0 0 0 0 0 0 
0.0285 0.022125 0 0 0 0 0 0 
0.0105 0.000375 1.99531 4.59114e+21 3.05311e-05 1.69008 9.98565 -0.922072 
0.0075 0.013125 0 0 0 0 0 0 
0.0105 0.013125 0 0 0 0 0 0 
0.0135 0.013125 0 0 0 0 0 0 
0.0165 0.013125 0 0 0 0 0 0 
0.0195 0.022125 0 0 0 0 0 0 
0.0225 0.022125 0 0 0 0 0 0 
0.00375 0.0001875 1.94725 9.79151e+21 6.51136e-05 31.4823 3.53737 -2.10031 
0.00525 0.0001875 1.84985 8.52599e+21 5.66978e-05 42.3258 -1.23586 0.794936 
0.00375 0.0020625 0 0 0 0 0 0 
0.00525 0.0020625 0 0 0 0 0 0 
0.00675 0.0001875 1.77314 5.29668e+21 3.52229e-05 56.7466 6.03391 -0.139594 
0.00825 0.0001875 1.94323 4.30072e+21 2.85998e-05 36.2806 -4.33845 -0.654333 
0.00675 0.0005625 1.76964 5.13571e+21 3.41525e-05 50.8978 3.24596 1.65122 
0.00825 0.0005625 1.97727 3.74238e+21 2.48868e-05 28.0169 4.07021 -3.65977 
0.01125 0.0031875 0 0 0 0 0 0 
0.01125 0.0035625 0 0 0 0 0 0 
0.01125 0.0046875 0 0 0 0 0 0 
0.01125 0.0050625 0 0 0 0 0 0 
0.01125 0.0061875 0 0 0 0 0 0 
0.01125 0.0065625 0 0 0 0 0 0 
0.01125 0.0069375 0 0 0 0 0 0 
0.01125 0.0073125 0 0 0 0 0 0 
0.01125 0.0076875 0 0 0 0 0 0 
0.01125 0.0080625 0 0 0 0 0 0 
0.01125 0.0084375 0 0 0 0 0 0 
0.01125 0.0088125 0 0 0 0 0 0 
0.01125 0.0091875 0 0 0 0 0 0 
0.0195 0.000375 1.94553 2.15413e+21 1.4325e-05 1.12042 1.08249 -2.00713 
0.0225 0.000375 2.0276 2.10132e+21 1.39738e-05 -1.10439 2.65916 3.15691 
0.01125 0.0039375 0 0 0 0 0 0 
0.01125 0.0043125 0 0 0 0 0 0 
0.01125 0.0054375 0 0 0 0 0 0 
0.01125 0.0058125 0 0 0 0 0 0 
0.01275 0.0016875 2.1766 2.21009e+21 1.46971e-05 -2.76607 1.35083 -3.71837 
0.01275 0.0020625 1.99313 2.09377e+21 1.39236e-05 1.65013 -3.9201 -1.05571 
0.02175 0.0016875 2.05312 2.007e+21 1.33466e-05 2.2251 1.60388 0.250825 
0.003375 0.00046875 1.95538 1.03567e+22 6.88719e-05 25.3501 -4.16353 1.58917 
0.004125 0.00046875 1.87909 9.70605e+21 6.45452e-05 35.3972 -1.97535 -0.418778 
0.003375 0.00065625 2.04158 1.13234e+22 7.53003e-05 25.9381 -3.74953 -3.21691 
0.004125 0.00065625 2.01312 1.02096e+22 6.7894e-05 30.4619 0.90023 2.90965 
0.004875 0.00046875 1.69154 7.65377e+21 5.08976e-05 36.9215 -2.38759 2.10126 
0.005625 0.00046875 1.77353 6.44655e+21 4.28696e-05 47.7906 -8.05293 1.00517 
0.004875 0.00065625 1.88636 7.9504e+21 5.28702e-05 37.7662 -4.41867 6.66463 
0.005625 0.00065625 1.82595 7.00187e+21 4.65625e-05 44.8469 -0.893799 -2.91026 
0.003375 0.00084375 1.89999 1.08544e+22 7.21817e-05 21.4874 -0.988262 0.388445 
0.004125 0.00084375 1.9041 9.72483e+21 6.46701e-05 29.4299 -2.29446 3.42654 
0.003375 0.00103125 1.96386 1.08303e+22 7.20216e-05 26.5557 -3.49735 -0.939378 
0.004125 0.00103125 1.89939 9.75653e+21 6.48809e-05 26.5748 -4.68099 1.33289 
0.004875 0.00084375 1.79515 8.55785e+21 5.69097e-05 36.2909 1.91548 2.53748 
0.005625 0.00084375 1.73899 7.20308e+21 4.79005e-05 41.6763 -2.12797 -3.89929 
0.004875 0.00103125 1.94716 8.24202e+21 5.48094e-05 33.1777 0.205612 2.18851 
0.005625 0.00103125 1.80836 7.53964e+21 5.01386e-05 37.8682 0.207748 1.24901 
0.003375 0.00121875 1.88988 1.08992e+22 7.24796e-05 25.4025 -5.37511 -1.56281 
0.003375 0.00140625 2.07235 1.09815e+22 7.30267e-05 20.2408 -3.0233 4.31905 
0.004875 0.00121875 1.8267 8.23695e+21 5.47757e-05 28.5768 2.12054 -3.34076 
0.005625 0.00121875 1.83129 7.47548e+21 4.97119e-05 34.3949 1.01416 -1.27448 
0.005625 0.00140625 2.00213 7.15479e+21 4.75793e-05 26.6581 1.69403 1.74995 
0.027375 0.00496875 1.98429 1.99761e+21 1.32841e-05 0.501719 -6.31003 0.193865 
0.027375 0.00515625 1.96377 2.20592e+21 1.46694e-05 3.2425 1.66034 -1.44353 
0.028125 0.00515625 2.02304 2.13129e+21 1.41731e-05 2.16173 0.140021 -0.333903 
0.025125 0.00534375 1.96585 2.07981e+21 1.38307e-05 -1.9786 1.02553 0.710313 
0.025125 0.00553125 1.90695 2.02363e+21 1.34571e-05 4.1334 2.58602 2.39805 
0.028875 0.00571875 2.00743 1.98894e+21 1.32265e-05 2.33121 -1.59783 -0.0750471 
0.029625 0.00571875 1.97984 2.11956e+21 1.40951e-05 2.58774 0.812303 -0.449213 
0.024375 0.00609375 1.96771 2.06899e+21 1.37588e-05 1.34724 0.372257 -1.16479 
0.024375 0.00628125 1.98161 2.0811e+21 1.38393e-05 2.35035 0.647599 -0.136603 
0.024375 0.00665625 2.04339 2.06078e+21 1.37042e-05 1.06017 1.18162 -0.739883 
0.029625 0.00665625 1.98419 2.10668e+21 1.40094e-05 2.21887 1.43894 -1.27112 
0.024375 0.0216562 1.97129 2.12798e+21 1.41511e-05 -0.135853 3.02349 -5.20092 
0.025125 0.0216562 2.0325 2.14586e+21 1.427e-05 1.53317 1.75149 1.90158 
0.025875 0.0216562 1.94079 2.09221e+21 1.39132e-05 0.900294 2.82778 0.476256 
0.026625 0.0216562 1.9866 1.91339e+21 1.27241e-05 3.46572 3.9366 -1.51953 
0.027375 0.0216562 1.99523 1.97777e+21 1.31522e-05 2.8465 6.31674 1.60281 
0.028125 0.0216562 1.89074 2.10652e+21 1.40084e-05 1.27407 5.37726 5.27834 
0.028875 0.0216562 2.05984 2.10652e+21 1.40084e-05 -1.95791 5.2555 0.054709 
0.029625 0.0216562 1.95064 2.13871e+21 1.42224e-05 -0.354705 -2.18039 0.955728 
0.006375 0.00121875 1.74592 5.46963e+21 3.63731e-05 41.1453 5.63709 -3.26722 
0.007125 0.00121875 1.80425 4.21598e+21 2.80363e-05 45.8065 17.7737 -8.45618 
0.006375 0.00140625 1.82959 5.07032e+21 3.37176e-05 33.5273 7.78286 -1.80111 
0.007125 0.00140625 1.84547 3.95968e+21 2.63319e-05 34.5692 18.4792 1.36851 
0.006375 0.00159375 2.0255 4.4189e+21 2.93857e-05 23.2584 10.0316 -1.82776 
0.007125 0.00159375 1.9663 3.38732e+21 2.25257e-05 23.0518 20.4743 2.93156 
0.006375 0.00178125 2.19321 2.72816e+21 1.81422e-05 9.10225 12.5484 5.57466 
0.007125 0.00178125 1.85427 3.13877e+21 2.08728e-05 20.1415 16.5335 0.866541 
0.006375 0.00196875 2.01677 2.7917e+21 1.85648e-05 -1.44005 8.78482 -2.66487 
0.007125 0.00196875 1.94717 2.97781e+21 1.98024e-05 14.0185 20.3255 -0.405375 
0.006375 0.00215625 1.98711 2.56862e+21 1.70813e-05 2.60593 4.10602 4.64258 
0.007125 0.00215625 1.99078 2.90258e+21 1.93021e-05 4.89791 15.9195 3.84342 
0.007875 0.00271875 1.95942 2.97226e+21 1.97655e-05 -3.38377 14.1557 -1.7309 
0.008625 0.00271875 1.88779 3.20954e+21 2.13434e-05 -2.75388 13.1903 4.42326 
0.007875 0.00290625 2.03932 3.03752e+21 2.01995e-05 -1.19888 16.0992 0.0028307 
0.008625 0.00290625 1.94532 2.87007e+21 1.90859e-05 -2.4784 18.5915 -0.494128 
0.007875 0.00346875 2.01624 2.85817e+21 1.90069e-05 -1.9375 15.2596 -1.07206 
0.007875 0.00365625 2.00781 2.80446e+21 1.86497e-05 0.27302 15.9748 -1.91201 
0.008625 0.00365625 2.00198 3.02114e+21 2.00906e-05 -1.85582 10.5692 -0.0413358 
0.006375 0.00384375 1.92242 2.55614e+21 1.69983e-05 2.69472 5.04292 0.577517 
0.006375 0.00403125 1.91857 2.62149e+21 1.74329e-05 -0.671299 3.41642 0.383768 
0.007125 0.00403125 2.05389 2.91136e+21 1.93606e-05 1.38271 7.42984 3.60766 
0.007875 0.00384375 1.93559 2.75305e+21 1.83078e-05 -0.52799 11.4761 0.207538 
0.007875 0.00403125 1.87837 2.68957e+21 1.78857e-05 -2.902 13.118 2.45323 
0.006375 0.00421875 1.99825 2.54522e+21 1.69257e-05 1.62758 6.10108 3.52668 
0.006375 0.00440625 2.06304 2.79812e+21 1.86075e-05 -2.8404 5.65436 -0.10203 
0.007875 0.00421875 2.02717 2.79002e+21 1.85536e-05 -1.02592 10.8387 -0.667976 
0.008625 0.00478125 1.98178 2.64405e+21 1.75829e-05 -1.33604 13.9784 0.710758 
0.006375 0.00534375 1.96992 2.68845e+21 1.78782e-05 -2.59535 -0.0436728 1.78455 
0.006375 0.00553125 2.03757 2.5014e+21 1.66343e-05 -1.49683 2.70908 2.47127 
0.006375 0.00571875 1.93253 2.8053e+21 1.86553e-05 -0.656343 9.02817 2.41084 
0.006375 0.00590625 1.9753 2.73421e+21 1.81825e-05 -1.46989 7.63832 -2.07988 
0.006375 0.00646875 1.96216 2.8409e+21 1.8892e-05 -2.71935 -0.843575 -1.63977 
0.006375 0.00665625 2.02397 2.47714e+21 1.6473e-05 1.1532 5.34951 -0.189811 
0.009375 0.00646875 2.05413 2.66648e+21 1.77321e-05 0.222364 5.58349 1.89542 
0.010125 0.00646875 0 0 0 0 0 0 
0.010125 0.00665625 0 0 0 0 0 0 
0.006375 0.00684375 1.98612 2.62942e+21 1.74857e-05 0.0104809 4.70788 -1.22724 
0.006375 0.00703125 2.01609 2.62268e+21 1.74409e-05 -2.62975 4.78266 -1.458 
0.006375 0.00721875 2.01036 2.58396e+21 1.71833e-05 -2.46274 6.66762 2.16428 
0.006375 0.00740625 1.94179 2.55293e+21 1.6977e-05 -0.601381 5.06693 0.281597 
0.006375 0.00759375 1.9629 2.49548e+21 1.65949e-05 -0.357792 5.3113 -1.73511 
0.006375 0.00778125 2.0761 2.39171e+21 1.59049e-05 0.606216 4.36655 2.03372 
0.006375 0.00815625 1.93138 2.55493e+21 1.69903e-05 0.76875 2.92631 -1.32427 
0.006375 0.00928125 1.98561 2.40529e+21 1.59952e-05 1.66106 3.5319 0.473649 
0.006375 0.00946875 2.02073 2.46076e+21 1.6364e-05 -2.1512 4.07327 -2.38611 
0.010125 0.00909375 0 0 0 0 0 0 
0.010125 0.00928125 0 0 0 0 0 0 
0.010125 0.00946875 2.07531 2.12717e+21 1.41457e-05 -1.83361 -0.100209 0.392151 
0.010875 0.00946875 2.06035 2.22293e+21 1.47825e-05 -2.5582 -6.97966 5.68018 
0.011625 0.00946875 1.94814 2.16821e+21 1.44186e-05 0.948193 -0.278819 -2.75977 
0.006375 0.0100312 2.01497 2.36085e+21 1.56996e-05 -4.33306 4.42404 3.0278 
0.006375 0.0102187 1.98197 2.36114e+21 1.57016e-05 -1.47859 3.28058 0.560328 
0.006375 0.0104062 1.94292 2.4593e+21 1.63544e-05 0.801334 3.76184 1.94486 
0.006375 0.0126563 2.00614 2.52002e+21 1.67581e-05 0.451039 0.167622 -0.129647 
0.015375 0.00534375 1.99836 2.173e+21 1.44504e-05 3.15365 0.883049 -1.70628 
0.016125 0.00534375 2.0293 2.10099e+21 1.39716e-05 2.88364 -1.32455 0.848574 
0.015375 0.00609375 1.92125 2.12099e+21 1.41046e-05 1.45414 3.59497 -1.62856 
0.016125 0.00609375 2.11218 2.13771e+21 1.42158e-05 4.10326 -2.87289 -1.20033 
0.015375 0.00628125 1.99948 2.09912e+21 1.39592e-05 1.19162 -1.82444 -6.04287 
0.017625 0.00609375 1.9884 2.20085e+21 1.46357e-05 -3.00237 -1.43659 -2.22151 
0.017625 0.00628125 1.93556 2.04326e+21 1.35877e-05 2.16767 1.56237 -0.119736 
0.012375 0.00909375 1.91035 1.73616e+21 1.15454e-05 -0.418714 3.39223 1.20519 
0.012375 0.00928125 2.11616 1.79254e+21 1.19204e-05 -8.05134 -10.6421 12.3532 
0.012375 0.00946875 2.05968 2.25249e+21 1.4979e-05 0.588377 -3.39866 0.101379 
0.018375 0.00571875 1.98845 2.13737e+21 1.42135e-05 1.78187 1.00357 -1.26583 
0.019125 0.00571875 2.07243 2.1156e+21 1.40688e-05 0.528986 -2.94767 -0.0149148 
0.018375 0.00590625 1.96705 2.19407e+21 1.45906e-05 1.04089 -0.402004 1.39103 
0.019125 0.00590625 2.07934 2.0312e+21 1.35074e-05 -0.239226 1.03029 2.64532 
0.022125 0.00571875 2.07578 2.09185e+21 1.39108e-05 2.01548 -0.173673 -1.95369 
0.019875 0.00609375 1.91853 1.97055e+21 1.31042e-05 0.245322 -2.74764 3.81293 
0.019875 0.00628125 1.97868 2.11714e+21 1.4079e-05 2.8676 -2.20368 0.672081 
0.023625 0.00628125 2.09842 2.10092e+21 1.39711e-05 0.634525 -0.399881 -2.25683 
0.018375 0.0192187 0 0 0 0 0 0 
0.018375 0.0194062 0 0 0 0 0 0 
0.018375 0.0199687 0 0 0 0 0 0 
0.018375 0.0201562 0 0 0 0 0 0 
0.018375 0.0210937 0 0 0 0 0 0 
0.018375 0.0212812 0 0 0 0 0 0 
0.019875 0.0216562 1.97319 1.942e+21 1.29143e-05 -1.46944 -3.88573 1.291 
0.020625 0.0216562 2.03573 1.93843e+21 1.28905e-05 0.190772 -0.747367 3.40196 
0.021375 0.0216562 1.95541 2.16374e+21 1.43889e-05 -0.643423 -0.847934 5.00193 
0.022125 0.0216562 1.93259 1.99565e+21 1.32711e-05 -2.84637 -2.82125 -2.17378 
0.022875 0.0216562 1.96467 1.90266e+21 1.26527e-05 0.257359 2.6814 -3.84626 
0.023625 0.0216562 2.08948 2.23169e+21 1.48408e-05 3.66063 -5.37063 -2.72535 
0.01125 0.0024375 0 0 0 0 0 0 
0.01125 0.0028125 0 0 0 0 0 0 
0.025875 0.00496875 1.9713 2.06822e+21 1.37536e-05 1.07328 0.911917 0.999585 
0.026625 0.00496875 1.97801 1.97711e+21 1.31478e-05 0.921546 -2.22818 1.17466 
0.026625 0.00515625 1.92282 2.08959e+21 1.38958e-05 0.542989 0.965245 0.862433 
0.027375 0.00459375 1.95096 2.06952e+21 1.37623e-05 -0.0816035 -1.49479 1.34055 
0.028125 0.00459375 1.93749 2.02025e+21 1.34346e-05 2.25195 -1.07046 1.97572 
0.027375 0.00478125 2.01929 2.10435e+21 1.39939e-05 -2.68754 0.224072 -1.00572 
0.028125 0.00478125 1.9398 2.13275e+21 1.41828e-05 0.668225 0.756589 -0.547023 
0.028875 0.00496875 1.95815 2.04088e+21 1.35719e-05 4.04082 -1.18387 -2.07196 
0.029625 0.00496875 1.95244 2.08644e+21 1.38748e-05 0.852897 -2.13032 3.66028 
0.028875 0.00515625 2.0245 2.11373e+21 1.40563e-05 -1.05618 2.23791 -0.784934 
0.029625 0.00515625 1.93393 2.14885e+21 1.42899e-05 2.66533 1.22272 -1.30827 
0.024375 0.00590625 2.03136 1.99287e+21 1.32526e-05 1.84011 0.0804739 0.637701 
0.025125 0.00590625 1.9679 2.13275e+21 1.41828e-05 -2.91958 1.08949 2.35167 
0.027375 0.00534375 2.03804 2.06286e+21 1.3718e-05 1.48937 2.77355 -1.18719 
0.028125 0.00534375 1.96319 2.0904e+21 1.39011e-05 1.22943 3.19164 0.821471 
0.028125 0.00553125 1.96607 2.13207e+21 1.41783e-05 -0.569738 0.808088 -5.47362 
0.025875 0.00609375 2.03667 2.03184e+21 1.35118e-05 7.28025 1.04664 -2.13998 
0.026625 0.00609375 1.91999 2.12285e+21 1.41169e-05 -0.665284 1.30848 -2.29615 
0.025875 0.00646875 1.90561 2.1485e+21 1.42875e-05 0.571334 -0.100878 3.62148 
0.007875 0.00234375 1.90842 3.18706e+21 2.11939e-05 7.46327 18.1901 1.70868 
0.008625 0.00234375 1.81238 3.3609e+21 2.235e-05 6.08396 14.2735 -1.04636 
0.007875 0.00253125 2.05535 3.21925e+21 2.1408e-05 2.55527 13.6231 1.9368 
0.008625 0.00253125 1.97197 3.29973e+21 2.19432e-05 0.174759 16.5123 0.102201 
0.006375 0.00309375 1.99896 2.95632e+21 1.96595e-05 -0.523511 3.14478 -1.37498 
0.007125 0.00309375 2.04135 2.87172e+21 1.90969e-05 0.829111 6.38184 -4.79717 
0.006375 0.00328125 1.94089 2.58043e+21 1.71599e-05 -1.5126 4.96606 1.49266 
0.007125 0.00328125 1.99203 2.92147e+21 1.94278e-05 1.23826 7.03708 -0.226423 
0.007875 0.00309375 1.89002 3.06195e+21 2.0362e-05 -1.76074 14.1564 4.35098 
0.008625 0.00309375 2.01207 2.93391e+21 1.95105e-05 0.543576 13.2338 -0.616287 
0.007875 0.00328125 1.94124 3.0077e+21 2.00012e-05 -2.44572 9.19971 0.108511 
0.008625 0.00328125 1.87035 3.03185e+21 2.01618e-05 -0.8608 15.9634 0.139557 
0.006375 0.00346875 2.03412 2.97319e+21 1.97717e-05 0.426225 2.39334 0.864778 
0.007125 0.00346875 1.97327 2.87449e+21 1.91153e-05 -0.59304 5.02587 3.39032 
0.006375 0.00365625 1.99575 2.6582e+21 1.76771e-05 -4.316 3.30188 -2.49107 
0.007125 0.00365625 1.97626 2.68065e+21 1.78263e-05 -1.29193 7.78224 3.90421 
0.006375 0.00459375 2.00683 2.69315e+21 1.79094e-05 -3.92298 6.59254 -3.26088 
0.006375 0.00478125 1.97124 2.74287e+21 1.82401e-05 1.65779 0.33144 1.39136 
0.006375 0.00496875 1.94947 2.67354e+21 1.7779e-05 -0.157532 5.46017 0.0439627 
0.006375 0.00515625 1.98601 2.71624e+21 1.8063e-05 -0.660069 3.28895 2.59425 
0.006375 0.00609375 1.99613 2.64311e+21 1.75767e-05 1.05894 2.94383 -3.78782 
0.006375 0.00628125 1.9877 2.66895e+21 1.77485e-05 2.71948 5.52813 1.41505 
0.010125 0.00684375 0 0 0 0 0 0 
0.009375 0.00703125 2.04845 2.58755e+21 1.72072e-05 3.02813 1.78318 -3.83792 
0.010125 0.00703125 0 0 0 0 0 0 
0.010125 0.00721875 0 0 0 0 0 0 
0.010125 0.00740625 0 0 0 0 0 0 
0.010125 0.00871875 0 0 0 0 0 0 
0.010125 0.00890625 0 0 0 0 0 0 
0.013875 0.00421875 1.98287 2.14349e+21 1.42542e-05 1.18941 3.83506 -0.92881 
0.014625 0.00421875 1.97658 2.13544e+21 1.42007e-05 0.827643 -1.25974 -1.86575 
0.014625 0.00440625 2.05715 2.00347e+21 1.33231e-05 1.15799 1.47867 2.0362 
0.015375 0.00384375 2.00236 2.02283e+21 1.34518e-05 3.60623 -2.81488 -2.66646 
0.016125 0.00384375 1.87987 2.20833e+21 1.46854e-05 0.840057 -0.451185 0.67121 
0.015375 0.00403125 2.00984 2.08316e+21 1.3853e-05 -2.80391 3.64234 -3.23643 
0.016125 0.00403125 1.91265 2.02701e+21 1.34796e-05 -2.20687 -1.01284 3.27072 
0.017625 0.00421875 2.07569 2.24275e+21 1.49143e-05 1.51238 -0.822375 -1.77117 
0.013875 0.00496875 2.06382 1.96572e+21 1.3072e-05 -3.33498 -0.19707 -0.169013 
0.014625 0.00496875 2.01484 2.09783e+21 1.39506e-05 0.199184 -3.94346 0.475076 
0.013875 0.00515625 1.97234 2.00398e+21 1.33265e-05 -0.24378 -1.36919 -0.132328 
0.014625 0.00515625 2.02525 2.09398e+21 1.3925e-05 6.70026 -2.21626 -0.216312 
0.015375 0.00459375 1.9779 2.12618e+21 1.41391e-05 -3.66462 1.43156 -0.581921 
0.016125 0.00459375 2.00132 1.99561e+21 1.32708e-05 -0.0879745 -3.55225 0.376755 
0.015375 0.00478125 1.95815 2.07594e+21 1.3805e-05 1.93735 0.452034 -1.98468 
0.016125 0.00478125 2.01913 2.13749e+21 1.42143e-05 1.16069 -2.54774 -0.526304 
0.013875 0.00534375 1.98513 2.1497e+21 1.42955e-05 -2.33635 -1.08886 -1.5801 
0.014625 0.00534375 1.97765 2.05439e+21 1.36617e-05 2.41734 -1.25322 -2.8148 
0.013875 0.00553125 1.92872 2.09933e+21 1.39606e-05 -0.939456 4.40529 -1.47657 
0.014625 0.00553125 2.03347 2.04e+21 1.3566e-05 3.71513 -2.95727 -0.817766 
0.013875 0.00571875 1.9943 2.03842e+21 1.35555e-05 0.733989 -1.2225 -0.0535919 
0.014625 0.00571875 1.91764 2.06613e+21 1.37397e-05 3.03953 0.855293 0.595127 
0.013875 0.00590625 2.01879 2.04269e+21 1.35839e-05 2.22957 3.96146 -2.47886 
0.014625 0.00590625 1.97631 2.1615e+21 1.4374e-05 -3.199 0.164002 -1.69603 
0.016875 0.00553125 2.06256 2.17913e+21 1.44912e-05 -1.07273 1.69964 3.24521 
0.017625 0.00553125 1.97697 2.13003e+21 1.41647e-05 0.833751 -0.518247 1.74827 
0.016125 0.00571875 1.96033 2.06217e+21 1.37134e-05 1.45353 1.24735 0.171295 
0.015375 0.00590625 1.89902 2.04078e+21 1.35712e-05 3.24328 3.94508 -3.22534 
0.013875 0.00628125 1.99565 2.18741e+21 1.45463e-05 1.30687 -1.49981 4.35398 
0.015375 0.00646875 1.98877 1.96654e+21 1.30775e-05 2.51293 -4.88629 1.91407 
0.012375 0.00796875 1.76086 1.93865e+21 1.2892e-05 1.40216 3.06469 8.12609 
0.012375 0.00815625 1.80454 1.93571e+21 1.28725e-05 7.39708 8.93706 -3.37471 
0.018375 0.00421875 2.03129 2.11934e+21 1.40936e-05 2.55961 -4.01706 -0.314921 
0.019125 0.00421875 2.02241 2.06569e+21 1.37368e-05 4.14302 3.31663 1.32461 
0.018375 0.00440625 2.02779 2.10878e+21 1.40234e-05 1.17911 -1.53811 3.76966 
0.019125 0.00440625 1.93098 2.02145e+21 1.34426e-05 -1.92098 0.638963 3.4995 
0.018375 0.00459375 2.02664 2.14097e+21 1.42374e-05 6.08424 -1.19234 -2.63643 
0.019125 0.00459375 2.00172 2.07937e+21 1.38278e-05 1.66127 -0.611547 3.72985 
0.019125 0.00478125 2.0269 2.14459e+21 1.42615e-05 3.29805 -0.879628 -0.351876 
0.018375 0.00496875 2.02561 2.14338e+21 1.42535e-05 0.795075 -3.17632 -0.307739 
0.019125 0.00496875 1.99486 2.07961e+21 1.38294e-05 1.84163 1.75931 -2.54612 
0.019125 0.00515625 1.95684 2.12251e+21 1.41147e-05 -0.464606 2.13763 0.679141 
0.022125 0.00496875 1.9425 2.05e+21 1.36325e-05 2.91798 1.5465 -2.66163 
0.021375 0.00515625 2.07563 2.24762e+21 1.49467e-05 4.04532 0.695029 -0.320911 
0.019125 0.00534375 2.02086 2.08192e+21 1.38448e-05 5.93231 -0.741567 1.91419 
0.020625 0.00553125 1.95037 2.12798e+21 1.41511e-05 2.71013 1.02726 4.13751 
0.019875 0.00571875 1.99426 1.9929e+21 1.32528e-05 2.02503 1.59498 2.58888 
0.021375 0.00534375 1.93336 2.12852e+21 1.41547e-05 2.97297 -0.866517 -0.813565 
0.022125 0.00534375 1.97701 2.08616e+21 1.3873e-05 2.18379 1.24364 0.828931 
0.023625 0.00534375 1.95918 2.08828e+21 1.38871e-05 -0.577345 -4.42979 2.08957 
0.022875 0.00553125 1.98478 2.03795e+21 1.35524e-05 -0.695347 -1.24973 -1.41114 
0.020625 0.00646875 2.02424 2.06627e+21 1.37407e-05 3.70734 0.349462 5.67426 
0.021375 0.00684375 2.01989 2.15315e+21 1.43185e-05 -0.369295 4.88095 -1.24389 
0.023625 0.00684375 1.94767 2.04731e+21 1.36146e-05 2.90599 3.61679 2.33231 
0.018375 0.0139688 0 0 0 0 0 0 
0.018375 0.0141563 0 0 0 0 0 0 
0.018375 0.0143437 0 0 0 0 0 0 
0.018375 0.0145312 0 0 0 0 0 0 
0.018375 0.0154687 0 0 0 0 0 0 
0.018375 0.0156563 0 0 0 0 0 0 
0.018375 0.0165937 0 0 0 0 0 0 
0.018375 0.0167812 0 0 0 0 0 0 
0.018375 0.0169687 0 0 0 0 0 0 
0.018375 0.0171562 0 0 0 0 0 0 
0.018375 0.0173437 0 0 0 0 0 0 
0.018375 0.0175312 0 0 0 0 0 0 
0.018375 0.0177187 0 0 0 0 0 0 
0.018375 0.0179062 0 0 0 0 0 0 
0.018375 0.0180937 0 0 0 0 0 0 
0.018375 0.0182812 0 0 0 0 0 0 
0.018375 0.0184687 0 0 0 0 0 0 
0.018375 0.0186562 0 0 0 0 0 0 
0.018375 0.0195938 0 0 0 0 0 0 
0.018375 0.0197812 0 0 0 0 0 0 
0.018375 0.0207187 0 0 0 0 0 0 
0.018375 0.0209062 0 0 0 0 0 0 
0.02475 0.0009375 2.04332 2.01304e+21 1.33867e-05 2.89945 -2.12888 2.04796 
0.02625 0.0009375 1.99559 2.15791e+21 1.43501e-05 6.26462 1.53649 1.15892 
0.02175 0.0009375 1.95201 2.01606e+21 1.34068e-05 5.71924 4.39136 1.76458 
0.02325 0.0009375 2.02061 2.1911e+21 1.45708e-05 3.97805 2.00163 -0.0672752 
0.02175 0.0013125 2.13382 2.11263e+21 1.4049e-05 3.40771 1.82877 0.420972 
0.02325 0.0013125 2.01281 2.08892e+21 1.38913e-05 4.31196 -0.434859 -3.99633 
0.0271875 0.0122344 1.91956 2.10547e+21 1.40013e-05 -0.855356 -3.68683 -1.25469 
0.0275625 0.0122344 1.95618 2.08696e+21 1.38783e-05 -3.68276 0.67337 0.32605 
0.0271875 0.0123281 1.93887 2.0307e+21 1.35042e-05 4.90224 4.13377 5.16214 
0.0275625 0.0123281 1.98524 2.07844e+21 1.38216e-05 4.22311 2.49084 -0.226219 
0.0279375 0.0122344 1.86593 2.08326e+21 1.38537e-05 -1.08808 -0.967286 4.89335 
0.0283125 0.0122344 1.96149 2.05366e+21 1.36568e-05 2.36173 -0.705707 1.73861 
0.0279375 0.0123281 2.02204 1.8728e+21 1.24541e-05 -3.09039 1.7016 -5.38534 
0.0283125 0.0123281 1.93819 2.11883e+21 1.40902e-05 0.128556 -0.0749728 -1.33442 
0.0286875 0.0126094 1.98613 2.14338e+21 1.42535e-05 2.69073 -2.98113 -3.63413 
0.0290625 0.0126094 1.92701 2.01054e+21 1.33701e-05 0.368869 3.35288 -1.10222 
0.0286875 0.0127031 2.08261 2.02777e+21 1.34847e-05 3.49565 0.630395 -2.85252 
0.0290625 0.0127031 2.08925 1.98144e+21 1.31766e-05 5.48793 5.395 -0.679803 
0.0241875 0.0131719 2.07427 2.13777e+21 1.42162e-05 -0.732051 2.02851 1.07253 
0.0245625 0.0131719 2.03376 1.98654e+21 1.32105e-05 -0.194095 3.81926 2.32188 
0.0241875 0.0132656 2.13249 2.16361e+21 1.4388e-05 -0.132336 2.67197 1.16668 
0.0245625 0.0132656 2.02203 2.09877e+21 1.39568e-05 -0.0315487 1.97343 -1.41787 
0.0241875 0.0142969 2.04014 2.14054e+21 1.42346e-05 -2.54846 2.16327 -0.39379 
0.0245625 0.0142969 1.95689 2.09304e+21 1.39187e-05 -2.96139 -2.40401 -2.99969 
0.0241875 0.0143906 1.93569 2.17378e+21 1.44556e-05 5.63295 -0.774015 -1.98602 
0.0245625 0.0143906 1.91595 2.11401e+21 1.40582e-05 -0.0952748 -0.409743 0.263077 
0.0249375 0.0142969 1.96982 2.01388e+21 1.33923e-05 -2.22138 0.717056 1.60032 
0.0253125 0.0142969 2.10362 2.05188e+21 1.3645e-05 -1.07695 -0.185385 2.98125 
0.0249375 0.0143906 1.96885 2.01334e+21 1.33887e-05 -0.476483 -3.06586 -1.29372 
0.0253125 0.0143906 1.91082 2.06368e+21 1.37235e-05 2.08984 -5.58019 -0.846566 
0.0249375 0.0146719 1.95952 1.95315e+21 1.29884e-05 -0.164338 1.086 -3.19998 
0.0253125 0.0146719 1.99487 2.16605e+21 1.44043e-05 -1.23609 1.37814 -1.02153 
0.0249375 0.0147656 1.96269 1.96221e+21 1.30487e-05 -0.541832 -2.56944 -2.0006 
0.0253125 0.0147656 2.03842 2.06645e+21 1.37419e-05 3.69536 0.930619 -2.88591 
0.0256875 0.0146719 2.02359 1.91304e+21 1.27217e-05 -0.769925 0.520557 -0.556572 
0.0260625 0.0146719 2.07383 2.09509e+21 1.39323e-05 0.873579 -3.59881 -2.48699 
0.0256875 0.0147656 2.02803 2.11244e+21 1.40477e-05 -1.08779 -2.25208 -0.108653 
0.0260625 0.0147656 1.94 2.1707e+21 1.44351e-05 6.51006 0.350706 -1.992 
0.0256875 0.0156094 1.94768 2.01276e+21 1.33848e-05 3.07279 -3.17257 4.26143 
0.0260625 0.0156094 1.97773 1.98666e+21 1.32113e-05 -0.0187081 6.32445 -3.5721 
0.0256875 0.0157031 2.05788 2.16218e+21 1.43785e-05 2.24974 -0.770407 3.11228 
0.0260625 0.0157031 2.03535 1.92579e+21 1.28065e-05 0.248588 -1.5957 0.393968 
0.0286875 0.0154219 2.05272 2.09594e+21 1.3938e-05 1.52413 1.3321 3.82118 
0.0290625 0.0154219 2.01896 1.92568e+21 1.28058e-05 -0.901834 3.14933 -3.56031 
0.0286875 0.0155156 1.91907 2.00741e+21 1.33493e-05 2.9228 5.2826 0.387701 
0.0290625 0.0155156 2.02123 2.11829e+21 1.40866e-05 0.991106 -2.84366 -6.95111 
0.0264375 0.0159844 2.06798 2.1383e+21 1.42197e-05 -0.454781 -1.69361 2.70408 
0.0268125 0.0159844 2.00985 2.0505e+21 1.36358e-05 2.85007 1.7417 -0.178328 
0.0264375 0.0160781 1.9576 2.0301e+21 1.35002e-05 0.35113 -1.48414 1.88291 
0.0268125 0.0160781 1.97945 2.13991e+21 1.42304e-05 1.08671 -4.04837 6.30842 
0.0241875 0.0161719 1.91748 2.1471e+21 1.42782e-05 -0.729714 2.06759 2.13827 
0.0245625 0.0161719 2.01764 1.95955e+21 1.3031e-05 0.294397 1.83995 -0.871679 
0.0241875 0.0162656 1.94816 1.96773e+21 1.30854e-05 -4.53782 2.84283 0.222724 
0.0245625 0.0162656 2.03654 2.0735e+21 1.37887e-05 -1.30301 4.9634 -2.29606 
0.0256875 0.0161719 2.0843 2.05752e+21 1.36825e-05 1.42526 0.599794 1.60973 
0.0260625 0.0161719 2.05189 2.02393e+21 1.34591e-05 0.435332 4.29322 -0.309516 
0.0260625 0.0162656 1.99056 2.0067e+21 1.33445e-05 2.05736 -0.531803 3.60883 
0.0264375 0.0161719 1.93676 2.00154e+21 1.33102e-05 1.47189 1.55098 -1.17793 
0.0268125 0.0161719 2.00344 2.09111e+21 1.39059e-05 -4.64256 -4.0471 2.16475 
0.0264375 0.0162656 2.03163 2.02896e+21 1.34926e-05 -1.60383 -1.2127 0.562081 
0.0268125 0.0162656 1.93599 2.10411e+21 1.39923e-05 -1.79301 -4.43334 -3.33928 
0.0256875 0.0163594 2.12387 1.95922e+21 1.30288e-05 -0.246022 4.05932 -3.75877 
0.0260625 0.0163594 1.97296 2.06715e+21 1.37465e-05 1.0347 -3.4803 -2.05674 
0.0256875 0.0164531 2.07367 2.15717e+21 1.43452e-05 -0.972329 -1.09238 -3.02011 
0.0260625 0.0164531 2.02698 2.17643e+21 1.44733e-05 0.925848 0.837317 1.80119 
0.0271875 0.0161719 2.00445 2.12191e+21 1.41107e-05 -2.39085 1.30186 0.0160588 
0.0275625 0.0161719 1.95108 2.03793e+21 1.35522e-05 -0.220083 3.66715 -2.68162 
0.0271875 0.0162656 1.99366 2.0067e+21 1.33445e-05 1.67611 1.78902 1.80335 
0.0275625 0.0162656 2.01455 2.13194e+21 1.41774e-05 1.81366 2.47338 -1.66567 
0.0271875 0.0163594 1.96376 1.98136e+21 1.31761e-05 -1.53425 -3.56506 4.18603 
0.0275625 0.0163594 2.00962 2.07545e+21 1.38017e-05 -1.06351 2.63993 0.337951 
0.0271875 0.0164531 2.02306 1.99484e+21 1.32657e-05 1.67596 0.671522 -6.01155 
0.0275625 0.0164531 1.94933 2.11865e+21 1.4089e-05 -0.381685 1.50979 1.13994 
0.0256875 0.0165469 2.02389 1.99995e+21 1.32997e-05 5.49483 -1.50906 -3.34686 
0.0260625 0.0165469 1.99759 2.21882e+21 1.47552e-05 1.44901 4.17276 2.01737 
0.0260625 0.0166406 2.06106 2.14103e+21 1.42378e-05 1.46466 3.14199 6.08263 
0.0264375 0.0165469 2.05301 1.99448e+21 1.32633e-05 -0.537267 0.470746 0.663622 
0.0268125 0.0165469 1.95923 1.95344e+21 1.29904e-05 -3.27522 -0.980987 1.14816 
0.0264375 0.0166406 2.02027 2.0975e+21 1.39484e-05 0.753747 -3.77872 2.21107 
0.0268125 0.0166406 1.97548 2.005e+21 1.33333e-05 -3.44799 2.91439 -1.47572 
0.0264375 0.0167344 1.91218 2.01812e+21 1.34205e-05 -3.28354 1.22857 -1.08946 
0.0268125 0.0167344 2.01674 2.12904e+21 1.41581e-05 1.85139 1.03653 3.61348 
0.0264375 0.0168281 1.92687 2.15215e+21 1.43118e-05 -2.32274 1.54518 -3.96089 
0.0268125 0.0168281 1.96147 2.20864e+21 1.46875e-05 -0.458524 -1.62386 -1.30911 
0.0241875 0.0169219 2.04874 2.00111e+21 1.33074e-05 0.626494 -1.94956 3.09495 
0.0241875 0.0170156 1.9969 1.98476e+21 1.31987e-05 -1.17369 -0.58021 0.541581 
0.0245625 0.0170156 1.96639 1.99274e+21 1.32517e-05 0.696909 -0.21608 -3.47589 
0.0249375 0.0169219 2.05059 1.97703e+21 1.31473e-05 -1.2917 -0.417115 -0.131125 
0.0253125 0.0169219 2.05511 2.00378e+21 1.33252e-05 2.64608 0.587624 -1.106 
0.0249375 0.0170156 2.01261 2.12311e+21 1.41187e-05 0.189425 0.244035 -0.982476 
0.0253125 0.0170156 2.04321 1.95018e+21 1.29687e-05 2.38082 -0.700916 -0.384572 
0.0264375 0.0171094 2.05623 1.99241e+21 1.32495e-05 -1.87168 0.845688 -0.954537 
0.0268125 0.0171094 1.89745 2.16704e+21 1.44108e-05 -0.0917608 -0.669303 -3.77858 
0.0264375 0.0172031 2.04074 2.13681e+21 1.42098e-05 -1.77183 -0.702234 1.66236 
0.0268125 0.0172031 2.01595 2.01576e+21 1.34048e-05 2.56372 -0.737046 -5.49658 
0.0279375 0.0167344 1.9421 2.16961e+21 1.44279e-05 1.82446 3.70847 -3.14445 
0.0279375 0.0168281 1.92133 2.00419e+21 1.33278e-05 1.47828 0.902477 -1.09368 
0.0283125 0.0168281 2.0185 2.02302e+21 1.34531e-05 -3.4799 0.226134 2.03573 
0.0286875 0.0165469 1.89721 2.0191e+21 1.3427e-05 -1.8896 -4.16033 4.34367 
0.0286875 0.0166406 2.03317 2.04581e+21 1.36047e-05 0.505492 -4.05674 3.04933 
0.0290625 0.0166406 1.98343 2.11927e+21 1.40931e-05 -1.72401 0.225858 0.435278 
0.0279375 0.0169219 1.95988 2.19373e+21 1.45883e-05 1.70955 1.43358 2.5524 
0.0283125 0.0169219 1.82114 1.98506e+21 1.32006e-05 1.14567 -2.41181 -0.0710359 
0.0279375 0.0170156 1.98407 1.98742e+21 1.32164e-05 0.314857 -0.76481 -3.56162 
0.0283125 0.0170156 1.98461 2.11247e+21 1.40479e-05 -3.35602 1.24632 1.8159 
0.0264375 0.0172969 2.01554 2.20113e+21 1.46375e-05 4.53302 2.06066 -0.769651 
0.0268125 0.0172969 1.95607 2.21422e+21 1.47245e-05 2.10408 -5.1983 -2.77687 
0.0264375 0.0173906 1.89695 1.97841e+21 1.31564e-05 2.40392 1.55943 -1.24705 
0.0268125 0.0173906 1.89424 2.08514e+21 1.38662e-05 -1.24327 0.727397 1.0288 
0.0249375 0.0176719 2.09243 2.05452e+21 1.36625e-05 0.274487 -2.85805 -1.4322 
0.0253125 0.0176719 1.97662 2.17492e+21 1.44632e-05 -1.78978 3.69596 -1.48788 