ITEM: TIMESTEP
500000
ITEM: NUMBER OF CELLS
37076
ITEM: BOX BOUNDS oo ao pp
0 0.12
0 0.03
-0.1 0.1
ITEM: CELLS xc yc f_out[1] f_out[2] f_out[3] f_out[4] f_out[5] f_out[6] 
0.003 0.00375 0 0 0 0 0 0 
0.003 0.00525 0 0 0 0 0 0 
0.003 0.00675 0 0 0 0 0 0 
0.003 0.00825 0 0 0 0 0 0 
0.003 0.00975 0 0 0 0 0 0 
0.003 0.01125 0 0 0 0 0 0 
0.003 0.01275 0 0 0 0 0 0 
0.003 0.01425 0 0 0 0 0 0 
0.003 0.01575 0 0 0 0 0 0 
0.003 0.01725 0 0 0 0 0 0 
0.003 0.01875 0 0 0 0 0 0 
0.003 0.02025 0 0 0 0 0 0 
0.003 0.02175 0 0 0 0 0 0 
0.003 0.02325 0 0 0 0 0 0 
0.027 0.02325 0 0 0 0 0 0 
0.003 0.02475 0 0 0 0 0 0 
0.027 0.02475 0 0 0 0 0 0 
0.003 0.02625 0 0 0 0 0 0 
0.027 0.02625 0 0 0 0 0 0 
0.003 0.02775 0 0 0 0 0 0 
0.027 0.02775 0 0 0 0 0 0 
0.003 0.02925 0 0 0 0 0 0 
0.027 0.02925 0 0 0 0 0 0 
0.009 0.01425 0 0 0 0 0 0 
0.009 0.01575 0 0 0 0 0 0 
0.009 0.01725 0 0 0 0 0 0 
0.009 0.01875 0 0 0 0 0 0 
0.009 0.02025 0 0 0 0 0 0 
0.009 0.02175 0 0 0 0 0 0 
0.009 0.02325 0 0 0 0 0 0 
0.009 0.02475 0 0 0 0 0 0 
0.009 0.02625 0 0 0 0 0 0 
0.009 0.02775 0 0 0 0 0 0 
0.009 0.02925 0 0 0 0 0 0 
0.015 0.01425 0 0 0 0 0 0 
0.015 0.01575 0 0 0 0 0 0 
0.015 0.01725 0 0 0 0 0 0 
0.015 0.01875 0 0 0 0 0 0 
0.015 0.02025 0 0 0 0 0 0 
0.015 0.02175 0 0 0 0 0 0 
0.015 0.02325 0 0 0 0 0 0 
0.015 0.02475 0 0 0 0 0 0 
0.015 0.02625 0 0 0 0 0 0 
0.015 0.02775 0 0 0 0 0 0 
0.015 0.02925 0 0 0 0 0 0 
0.021 0.02325 0 0 0 0 0 0 
0.021 0.02475 0 0 0 0 0 0 
0.021 0.02625 0 0 0 0 0 0 
0.021 0.02775 0 0 0 0 0 0 
0.021 0.02925 0 0 0 0 0 0 
0.0015 0.000375 0 0 0 0 0 0 
0.0015 0.001125 0 0 0 0 0 0 
0.0255 0.022125 0 0 0 0 0 0 
0.0285 0.022125 0 0 0 0 0 0 
0.0105 0.000375 1.9218 4.05728e+21 2.69809e-05 -0.203294 2.00816 2.01766 
0.0075 0.013125 0 0 0 0 0 0 
0.0105 0.013125 0 0 0 0 0 0 
0.0135 0.013125 0 0 0 0 0 0 
0.0165 0.013125 0 0 0 0 0 0 
0.0195 0.022125 0 0 0 0 0 0 
0.0225 0.022125 0 0 0 0 0 0 
0.00375 0.0001875 1.96755 8.67689e+21 5.77013e-05 26.5904 2.7569 -3.16971 
0.00525 0.0001875 1.91272 6.51899e+21 4.33513e-05 38.5195 -4.0635 2.27893 
0.00825 0.0009375 2.00547 3.3772e+21 2.24584e-05 17.9236 10.5288 1.68347 
0.01125 0.0091875 0 0 0 0 0 0 
0.00675 0.0001875 2.01105 4.3309e+21 2.88005e-05 45.0381 5.47253 -1.88086 
0.00825 0.0001875 1.89825 3.36512e+21 2.23781e-05 22.9133 -0.801915 0.52599 
0.00675 0.0005625 1.82193 4.32084e+21 2.87336e-05 39.6687 5.24194 -0.727434 
0.00825 0.0005625 1.95086 3.65184e+21 2.42847e-05 16.8994 3.92897 -2.64391 
0.01125 0.0069375 0 0 0 0 0 0 
0.01125 0.0073125 0 0 0 0 0 0 
0.01125 0.0076875 0 0 0 0 0 0 
0.01125 0.0080625 0 0 0 0 0 0 
0.003375 0.00084375 2.05444 8.17168e+21 5.43417e-05 12.5192 -3.2674 -2.53602 
0.004125 0.00084375 1.98824 7.95424e+21 5.28957e-05 29.9505 -3.44711 -1.14567 
0.003375 0.00103125 1.87367 8e+21 5.32e-05 17.8776 -9.392 0.96318 
0.004125 0.00103125 2.00741 8.02252e+21 5.33498e-05 21.5307 -1.73743 -0.866606 
0.004875 0.00084375 1.93224 7.29697e+21 4.85249e-05 31.4192 4.15663 1.89651 
0.005625 0.00084375 1.86167 5.67393e+21 3.77317e-05 37.2517 -5.97528 -3.96669 
0.004875 0.00103125 1.99602 6.65068e+21 4.4227e-05 29.1332 3.07236 -1.0445 
0.005625 0.00103125 1.98721 5.92635e+21 3.94102e-05 32.3141 3.24596 5.06075 
0.004875 0.00121875 1.98003 6.41684e+21 4.2672e-05 23.2008 -2.92933 -1.76951 
0.005625 0.00121875 1.93062 6.16611e+21 4.10046e-05 25.3473 0.729791 -0.430301 
0.004875 0.00140625 1.99717 6.47875e+21 4.30837e-05 19.8566 -0.07425 1.37089 
0.005625 0.00140625 1.96157 5.47273e+21 3.63937e-05 18.3504 -2.64839 -1.32774 
0.025875 0.0216562 2.04596 2.32826e+21 1.54829e-05 1.55728 2.64747 2.19313 
0.026625 0.0216562 2.04774 2.46059e+21 1.63629e-05 1.80065 -0.00581335 2.32618 
0.027375 0.0216562 2.09134 2.49635e+21 1.66007e-05 -0.816484 1.32598 -2.86312 
0.028125 0.0216562 1.90082 2.53212e+21 1.68386e-05 -1.67468 -1.62994 -2.18507 
0.007875 0.00234375 2.02829 3.29812e+21 2.19325e-05 5.47973 7.75206 -0.317195 
0.008625 0.00234375 1.94794 3.18706e+21 2.11939e-05 1.73682 8.95303 -2.24627 
0.007875 0.00253125 2.01743 3.02252e+21 2.00998e-05 -0.0408729 8.89693 0.175723 
0.008625 0.00253125 2.07677 3.02699e+21 2.01295e-05 0.227474 14.7026 0.276943 
0.007875 0.00271875 1.8957 3.05968e+21 2.03469e-05 -0.280993 13.2369 1.55652 
0.008625 0.00271875 1.97573 3.21786e+21 2.13988e-05 2.58262 8.54121 -1.45546 
0.007875 0.00290625 1.98534 3.17771e+21 2.11318e-05 -1.33796 13.3622 -0.575562 
0.008625 0.00290625 1.98709 2.97521e+21 1.97852e-05 2.41821 9.40295 -1.59688 
0.006375 0.00459375 1.95029 2.91488e+21 1.9384e-05 -4.56175 5.41785 -2.22317 
0.007125 0.00459375 1.99577 2.87023e+21 1.9087e-05 0.0529569 6.33826 -0.529744 
0.006375 0.00478125 2.00585 2.90265e+21 1.93026e-05 1.06029 -2.14565 -0.76415 
0.008625 0.00478125 2.00412 2.80028e+21 1.86218e-05 1.39779 6.17162 1.07103 
0.006375 0.00646875 2.02764 2.74905e+21 1.82812e-05 1.26282 3.56111 -0.661846 
0.006375 0.00665625 2.02401 2.78001e+21 1.8487e-05 4.06347 6.13485 -1.42452 
0.006375 0.00721875 1.97926 2.7574e+21 1.83367e-05 -1.48586 5.79045 -0.683533 
0.006375 0.00740625 2.0142 2.77928e+21 1.84822e-05 -0.563602 1.72334 1.59096 
0.006375 0.00796875 1.9025 2.7695e+21 1.84172e-05 1.00736 3.20606 -1.20329 
0.006375 0.00853125 1.91415 2.68142e+21 1.78314e-05 4.24147 3.44831 -0.524788 
0.006375 0.00928125 2.02719 2.74597e+21 1.82607e-05 0.697246 3.02117 -0.463361 
0.019875 0.0216562 1.95891 2.35687e+21 1.56732e-05 -2.71773 1.01677 1.22976 
0.020625 0.0216562 1.93931 2.50708e+21 1.66721e-05 1.30922 -1.81022 0.227164 
0.022875 0.0216562 1.927 2.54284e+21 1.69099e-05 2.2736 1.75574 1.61535 
0.023625 0.0216562 1.91481 2.6251e+21 1.74569e-05 2.94683 0.0830022 -1.55466 
0.01125 0.0039375 0 0 0 0 0 0 
0.01125 0.0043125 0 0 0 0 0 0 
0.01125 0.0084375 0 0 0 0 0 0 
0.01125 0.0088125 0 0 0 0 0 0 
0.01275 0.0024375 1.96507 2.60089e+21 1.72959e-05 -0.0123852 -0.810898 1.79964 
0.003375 0.00140625 1.85316 8.65174e+21 5.75341e-05 15.3119 -3.50128 3.5615 
0.004125 0.00140625 1.95523 8.20105e+21 5.4537e-05 15.5183 0.0119292 -0.45087 
0.025125 0.00534375 2.0368 2.60294e+21 1.73095e-05 -1.05392 2.23248 -2.82475 
0.024375 0.0216562 2.08635 2.58219e+21 1.71715e-05 3.26829 -0.135513 2.31011 
0.025125 0.0216562 1.93547 2.59649e+21 1.72667e-05 -0.727873 -0.0172126 1.89946 
0.028875 0.0216562 2.10065 2.48205e+21 1.65056e-05 0.350412 -4.64279 0.765933 
0.029625 0.0216562 1.98937 2.60722e+21 1.7338e-05 -3.55481 -0.865044 -2.4039 
0.006375 0.00121875 1.87909 4.59672e+21 3.05682e-05 34.176 3.47366 4.18843 
0.007125 0.00121875 1.81582 3.68666e+21 2.45163e-05 25.9818 17.5999 3.40222 
0.006375 0.00140625 1.89538 4.5311e+21 3.01318e-05 25.3146 9.73107 -0.324498 
0.007125 0.00140625 1.9774 3.62971e+21 2.41376e-05 19.8065 17.1772 6.03337 
0.007875 0.00309375 1.96359 3.09487e+21 2.05809e-05 -2.59037 8.78011 1.82183 
0.008625 0.00309375 1.97335 3.2412e+21 2.1554e-05 -1.13438 6.0856 -0.401261 
0.007875 0.00328125 1.92032 3.09738e+21 2.05976e-05 0.963919 11.2022 0.711478 
0.008625 0.00328125 1.98272 3.19741e+21 2.12628e-05 1.65729 10.7927 1.67002 
0.006375 0.00346875 1.92236 2.7346e+21 1.81851e-05 -0.902701 2.45564 -0.400942 
0.007125 0.00346875 1.91019 2.97237e+21 1.97663e-05 -5.28473 8.35385 0.190523 
0.006375 0.00365625 1.98753 3.00644e+21 1.99928e-05 -5.44043 5.61756 1.16135 
0.008625 0.00384375 1.97662 2.94149e+21 1.95609e-05 -2.08749 5.73437 -0.346842 
0.008625 0.00403125 2.10177 2.98155e+21 1.98273e-05 -6.40606 5.06413 1.01112 
0.007875 0.00421875 2.0148 2.97513e+21 1.97846e-05 -0.0940237 2.12327 -0.900836 
0.008625 0.00421875 1.92453 2.92147e+21 1.94278e-05 -0.741403 7.71621 -0.53058 
0.007875 0.00440625 1.86074 2.9487e+21 1.96088e-05 -0.90287 9.24888 -0.514345 
0.008625 0.00440625 1.98483 2.97182e+21 1.97626e-05 0.211997 7.47303 -1.19334 
0.006375 0.00496875 2.1024 3.05364e+21 2.03067e-05 1.42453 4.19543 1.21356 
0.006375 0.00515625 2.00842 2.80267e+21 1.86378e-05 0.522281 1.07657 -3.0072 
0.007125 0.00515625 2.02911 2.9961e+21 1.99241e-05 -0.681804 4.85504 1.38633 
0.006375 0.00628125 2.02021 2.85138e+21 1.89617e-05 -0.245955 2.99236 1.69362 
0.006375 0.00684375 2.04818 2.81547e+21 1.87229e-05 4.04067 4.22879 0.335972 
0.006375 0.00703125 2.03388 2.83998e+21 1.88859e-05 -0.0261186 1.66433 -3.26788 
0.006375 0.00759375 2.03117 2.72183e+21 1.81002e-05 -0.618925 2.11642 3.71545 
0.006375 0.00778125 1.93569 2.66443e+21 1.77184e-05 -1.79205 1.50823 -0.567094 
0.010125 0.00946875 2.03989 2.64016e+21 1.75571e-05 0.961349 4.32087 -2.67523 
0.012375 0.00909375 1.97262 2.61357e+21 1.73802e-05 1.12185 -8.01105 2.39339 
0.012375 0.00928125 1.92207 2.35957e+21 1.56911e-05 3.24701 -6.44944 4.34866 
0.012375 0.00946875 2.00307 2.549e+21 1.69509e-05 -2.0056 -1.0445 0.43535 
0.018375 0.0158438 0 0 0 0 0 0 
0.018375 0.0160313 0 0 0 0 0 0 
0.021375 0.0216562 2.05013 2.47489e+21 1.6458e-05 1.75131 -1.2068 -2.6835 
0.022125 0.0216562 1.96676 2.4427e+21 1.6244e-05 8.0881 -1.88241 1.47417 
0.015375 0.00346875 1.98674 2.59389e+21 1.72494e-05 1.46907 -3.69243 1.83493 
0.016125 0.00346875 1.94537 2.57758e+21 1.71409e-05 3.12914 3.47392 -2.8043 
0.015375 0.00365625 2.06999 2.46706e+21 1.6406e-05 -2.78537 -7.18391 -1.97459 
0.016125 0.00365625 1.99435 2.43301e+21 1.61795e-05 0.305803 0.206029 3.78247 
0.0256875 0.0154219 1.92917 2.51865e+21 1.6749e-05 -1.99088 0.647363 -0.764294 
0.0260625 0.0154219 2.03604 2.54213e+21 1.69052e-05 -0.174365 -0.642555 -1.31274 
0.0256875 0.0155156 2.06739 2.41298e+21 1.60463e-05 1.70528 2.25037 2.14716 
0.0260625 0.0155156 2.04957 2.6464e+21 1.75986e-05 2.93293 3.05956 -0.993984 
0.0260625 0.0172969 1.95379 2.68533e+21 1.78574e-05 -0.530297 0.0547312 -1.23566 
0.0256875 0.0173906 2.04558 2.56412e+21 1.70514e-05 -3.50775 1.99538 3.72486 
0.0249375 0.0176719 2.0677 2.42853e+21 1.61497e-05 -1.99084 -3.76451 0.321326 
0.0253125 0.0176719 1.97097 2.37217e+21 1.57749e-05 -1.56251 0.369326 0.200239 
0.0249375 0.0177656 1.9284 2.63231e+21 1.75049e-05 1.1501 -2.3121 -0.14872 
0.0253125 0.0177656 1.9575 2.63741e+21 1.75388e-05 -0.819565 0.280977 1.05175 
0.0241875 0.0193594 1.99211 2.56527e+21 1.7059e-05 -0.638924 -0.213874 0.566219 
0.0245625 0.0193594 2.03485 2.56059e+21 1.70279e-05 -0.222733 -0.363412 0.433954 
0.0241875 0.0194531 2.0151 2.49007e+21 1.6559e-05 -0.790614 0.847273 0.743122 
0.0245625 0.0194531 2.02111 2.49938e+21 1.66209e-05 -1.10036 -3.12402 -2.56123 
0.0283125 0.0194531 2.02641 2.49938e+21 1.66209e-05 -3.83497 1.24514 2.94879 
0.0249375 0.0195469 1.99176 2.42255e+21 1.61099e-05 2.99176 -1.51261 -1.72638 
0.0253125 0.0196406 2.03019 2.45247e+21 1.63089e-05 1.15128 -1.72929 0.320452 
0.0264375 0.0202031 1.95347 2.49399e+21 1.6585e-05 1.42107 1.07454 0.611612 
0.0275625 0.0197344 1.99029 2.42706e+21 1.61399e-05 1.86792 -0.164251 0.458148 
0.0271875 0.0198281 1.97672 2.45439e+21 1.63217e-05 -2.27845 1.01944 2.72409 
0.0256875 0.0204844 1.96031 2.41112e+21 1.6034e-05 -1.21313 3.15695 -1.44637 
0.0260625 0.0204844 1.97189 2.48847e+21 1.65484e-05 -0.455792 1.89594 0.73693 
0.0256875 0.0205781 2.0315 2.51894e+21 1.67509e-05 -2.14133 -1.62472 -1.33832 
0.0241875 0.0206719 1.99908 2.46152e+21 1.63691e-05 0.985804 -0.570722 -2.42695 
0.0241875 0.0210469 2.05752 2.43272e+21 1.61776e-05 0.49131 2.40708 2.13565 
0.0279375 0.0210469 1.99985 2.54027e+21 1.68928e-05 -1.34709 3.48936 -0.210951 
0.0283125 0.0211406 2.06083 2.47119e+21 1.64334e-05 3.69442 -4.74685 -1.05568 
0.0084375 0.00923437 1.9934 2.97577e+21 1.97888e-05 2.7973 -0.220383 1.2869 
0.0088125 0.00923437 1.9209 2.61299e+21 1.73764e-05 -0.310918 5.93518 2.62535 
0.0084375 0.00932812 1.8842 2.7857e+21 1.85249e-05 3.58979 0.0385424 0.365967 
0.0088125 0.00932812 1.86139 2.96527e+21 1.97191e-05 0.413655 -0.128596 1.52537 
0.0084375 0.00979687 1.9736 2.66628e+21 1.77308e-05 -0.489384 4.78873 3.55572 
0.0088125 0.00979687 2.02084 2.87884e+21 1.91443e-05 -0.534567 4.01834 -1.54622 
0.0084375 0.00989062 2.09554 2.71882e+21 1.80801e-05 0.634125 0.941263 -1.05816 
0.0088125 0.00989062 2.01375 2.7234e+21 1.81106e-05 -0.391243 0.98282 -1.78874 
0.0230625 0.0191719 1.96492 2.51007e+21 1.6692e-05 -2.74541 -3.88339 -0.344077 
0.0230625 0.0192656 1.9641 2.43911e+21 1.62201e-05 -2.32677 7.19136 -3.14948 
0.0196875 0.0201094 2.01862 2.51462e+21 1.67222e-05 1.37619 0.729329 -0.186007 
0.0200625 0.0201094 1.983 2.43357e+21 1.61833e-05 -4.384 1.92217 -0.926503 
0.0196875 0.0202031 1.90341 2.53208e+21 1.68383e-05 1.2043 3.65797 0.663271 
0.0200625 0.0202031 2.03581 2.45141e+21 1.63019e-05 -0.646231 -1.63734 -1.02424 
0.0234375 0.0199219 2.06082 2.48375e+21 1.65169e-05 0.468149 0.0621579 0.0929923 
0.0238125 0.0200156 1.97681 2.53544e+21 1.68607e-05 -1.02477 2.21291 -1.63944 
0.0196875 0.0204844 1.96716 2.52826e+21 1.68129e-05 0.28989 -0.622483 -0.663095 
0.0200625 0.0205781 1.9665 2.49694e+21 1.66046e-05 -1.0122 1.04156 -1.80409 
0.0230625 0.0214219 1.94233 2.44508e+21 1.62598e-05 -0.0504226 -0.552009 -3.38477 
0.01125 0.0054375 0 0 0 0 0 0 
0.01125 0.0058125 0 0 0 0 0 0 
0.003375 0.00046875 1.95114 8.48231e+21 5.64073e-05 18.5556 -4.01757 0.768031 
0.004125 0.00046875 1.90218 7.91936e+21 5.26638e-05 25.6977 2.43529 6.09303 
0.003375 0.00065625 1.96319 8.25992e+21 5.49285e-05 24.1989 -1.14144 -0.829583 
0.004125 0.00065625 1.79256 7.9504e+21 5.28702e-05 28.3986 -1.02166 -0.444734 
0.025875 0.00421875 1.96889 2.51638e+21 1.67339e-05 2.12035 -0.53648 2.50616 
0.026625 0.00421875 2.03364 2.58077e+21 1.71621e-05 -0.444836 -0.160773 0.715271 
0.025875 0.00440625 2.00744 2.35279e+21 1.56461e-05 2.93765 0.62031 1.86678 
0.026625 0.00440625 2.07684 2.4915e+21 1.65684e-05 -0.667506 1.54149 2.24355 
0.028875 0.00496875 2.04788 2.49188e+21 1.6571e-05 -3.5866 0.810353 -0.919993 
0.028875 0.00515625 2.04754 2.41883e+21 1.60852e-05 2.15045 0.638169 4.25601 
0.025125 0.00571875 2.00207 2.54506e+21 1.69246e-05 0.643536 0.556802 -2.09764 
0.025125 0.00590625 2.01356 2.60223e+21 1.73048e-05 -1.18446 -3.59126 0.496642 
0.028125 0.00553125 1.94034 2.58018e+21 1.71582e-05 -0.0350788 -1.36964 -2.07014 
0.029625 0.00590625 1.97439 2.47193e+21 1.64383e-05 -2.08657 -0.0545165 0.283866 
0.006375 0.00534375 2.01372 2.887e+21 1.91986e-05 -0.0496789 1.02817 -0.156891 
0.006375 0.00553125 2.0121 2.73926e+21 1.82161e-05 0.980754 1.56644 0.417084 
0.010875 0.00946875 2.06893 2.78379e+21 1.85122e-05 -0.338423 -5.51555 8.45593 
0.011625 0.00946875 1.9743 2.65384e+21 1.7648e-05 2.6998 2.20711 8.66221 
0.015375 0.00421875 1.9757 2.54053e+21 1.68945e-05 -0.373382 -0.125632 -2.99385 
0.016125 0.00421875 2.12261 2.52711e+21 1.68053e-05 1.63428 1.87012 -1.11565 
0.015375 0.00440625 2.01282 2.548e+21 1.69442e-05 0.251525 1.85998 -0.310119 
0.016125 0.00534375 1.91993 2.52034e+21 1.67602e-05 -0.563705 -0.170178 0.397511 
0.016875 0.00534375 2.01118 2.40809e+21 1.60138e-05 0.399481 -0.730336 -1.84652 
0.017625 0.00534375 1.94897 2.40597e+21 1.59997e-05 0.3231 -4.31855 2.24863 
0.012375 0.00834375 2.11795 2.66538e+21 1.77248e-05 4.05725 1.34318 5.56651 
0.012375 0.00853125 1.72002 2.34811e+21 1.56149e-05 2.56637 -8.32695 -0.934206 
0.022875 0.00421875 1.98663 2.56467e+21 1.70551e-05 1.65926 2.12872 0.95516 
0.023625 0.00421875 1.95846 2.68003e+21 1.78222e-05 1.40008 -1.14208 1.78107 
0.023625 0.00440625 1.96092 2.61479e+21 1.73883e-05 2.84556 2.8399 -1.00078 
0.019875 0.00459375 1.94939 2.47603e+21 1.64656e-05 -0.379882 3.26163 -1.88058 
0.019875 0.00478125 1.92854 2.44521e+21 1.62607e-05 -0.54885 3.61365 -0.644757 
0.020625 0.00478125 1.90985 2.48782e+21 1.6544e-05 -1.29832 -4.57258 0.391755 
0.023625 0.00553125 1.91991 2.49219e+21 1.65731e-05 0.499181 2.61326 1.07095 
0.018375 0.0184687 0 0 0 0 0 0 
0.018375 0.0186562 0 0 0 0 0 0 
0.018375 0.0188437 0 0 0 0 0 0 
0.018375 0.0190312 0 0 0 0 0 0 
0.018375 0.0199687 0 0 0 0 0 0 
0.018375 0.0201562 0 0 0 0 0 0 
0.018375 0.0210937 0 0 0 0 0 0 
0.018375 0.0212812 0 0 0 0 0 0 
0.01575 0.0009375 2.07762 2.52913e+21 1.68187e-05 1.41238 0.34986 0.327238 
0.01725 0.0009375 2.02326 2.63476e+21 1.75211e-05 2.07453 -1.85236 0.000190221 
0.01575 0.0013125 2.06687 2.41875e+21 1.60847e-05 3.31726 -2.09798 -0.49925 
0.01725 0.0013125 2.01866 2.42306e+21 1.61134e-05 -0.901102 -0.244877 -0.605272 
0.016125 0.00459375 2.04741 2.67806e+21 1.78091e-05 2.46745 -3.77345 -1.00762 
0.0294375 0.0131719 2.04585 2.45396e+21 1.63189e-05 -2.42262 1.36565 -5.36136 
0.0298125 0.0131719 2.05068 2.39554e+21 1.59303e-05 2.45576 -0.413701 0.222694 
0.0294375 0.0132656 1.95631 2.5936e+21 1.72475e-05 3.74402 1.06115 3.28942 
0.0298125 0.0132656 2.0068 2.5117e+21 1.67028e-05 -0.597706 -1.4188 2.5015 
0.0241875 0.0144844 1.93442 2.41913e+21 1.60872e-05 -2.97846 -1.95398 -1.64076 
0.0245625 0.0144844 1.98809 2.53477e+21 1.68562e-05 3.76584 -1.30744 0.680685 
0.0241875 0.0145781 2.02257 2.49673e+21 1.66033e-05 1.20924 0.549638 -2.72733 
0.0245625 0.0145781 2.02898 2.55884e+21 1.70163e-05 1.94253 1.99851 -3.97185 
0.0271875 0.0148594 1.95065 2.36417e+21 1.57217e-05 0.79112 2.06631 1.08893 
0.0275625 0.0148594 2.01339 2.4312e+21 1.61675e-05 0.232751 -4.22577 -1.80675 
0.0271875 0.0149531 1.95753 2.48256e+21 1.6509e-05 0.425475 -0.0442517 -1.77928 
0.0275625 0.0149531 2.03781 2.3766e+21 1.58044e-05 1.68285 -0.771732 2.60119 
0.0294375 0.0148594 2.02504 2.68102e+21 1.78288e-05 2.00018 0.620637 -1.31207 
0.0298125 0.0148594 1.95747 2.65969e+21 1.76869e-05 -1.89816 -1.83825 1.29783 
0.0294375 0.0149531 2.08132 2.70962e+21 1.8019e-05 2.51625 -0.542262 -0.147322 
0.0298125 0.0149531 2.09997 2.54008e+21 1.68915e-05 1.1655 -3.27606 0.0205072 
0.0249375 0.0154219 1.97697 2.42471e+21 1.61243e-05 2.29692 -4.59624 2.9689 
0.0253125 0.0154219 2.09257 2.6302e+21 1.74908e-05 0.751572 1.20448 2.71868 
0.0249375 0.0155156 1.94631 2.42465e+21 1.61239e-05 -0.572444 0.795845 2.57644 
0.0253125 0.0155156 2.06186 2.40423e+21 1.59881e-05 -0.730466 0.824089 -0.300006 
0.0245625 0.0159844 2.0365 2.58012e+21 1.71578e-05 -0.308782 4.81691 -2.55292 
0.0241875 0.0160781 1.95681 2.36235e+21 1.57096e-05 -1.69362 -2.6507 -4.08478 
0.0245625 0.0160781 1.9574 2.33701e+21 1.55411e-05 5.81091 0.651481 0.49808 
0.0264375 0.0171094 1.89713 2.65125e+21 1.76308e-05 1.41128 0.827614 0.659422 
0.0268125 0.0171094 1.99976 2.40253e+21 1.59768e-05 0.35355 0.947525 -0.766017 
0.0264375 0.0172031 1.99393 2.46312e+21 1.63798e-05 4.79614 -2.40546 -2.06712 
0.0268125 0.0172031 2.00936 2.61575e+21 1.73948e-05 -1.34312 2.13699 -0.373437 
0.0294375 0.0178594 2.01279 2.53231e+21 1.68399e-05 3.73625 -0.733219 -1.33596 
0.0298125 0.0178594 2.00416 2.42078e+21 1.60982e-05 -0.93259 0.857302 -0.571566 
0.0294375 0.0179531 2.05028 2.58717e+21 1.72047e-05 0.72458 -0.615124 -0.907344 
0.0298125 0.0179531 1.96112 2.81159e+21 1.86971e-05 -2.3931 0.607957 1.86529 
0.0249375 0.0185156 2.03541 2.41811e+21 1.60804e-05 -1.77656 -1.97918 2.9282 
0.0253125 0.0185156 2.03109 2.57214e+21 1.71047e-05 0.445075 -0.375015 -0.228276 
0.0249375 0.0186094 2.07294 2.5008e+21 1.66303e-05 -0.154787 0.594529 2.16674 
0.0253125 0.0186094 2.01976 2.43512e+21 1.61935e-05 2.42584 2.3648 0.701405 
0.0249375 0.0187031 1.96467 2.48584e+21 1.65309e-05 -3.48356 -0.703267 1.81454 
0.0253125 0.0187031 2.0144 2.63833e+21 1.75449e-05 -0.306761 3.86536 5.02839 
0.0286875 0.0184219 2.06252 2.53854e+21 1.68813e-05 -1.52818 1.04821 4.01425 
0.0294375 0.0184219 2.03004 2.45253e+21 1.63093e-05 1.08093 2.09373 -0.316003 
0.0294375 0.0185156 1.95603 2.65038e+21 1.7625e-05 -1.0053 -2.54054 0.303152 
0.0298125 0.0185156 1.97945 2.58437e+21 1.7186e-05 -1.9121 -0.912624 -1.36911 
0.0249375 0.0187969 2.01557 2.68057e+21 1.78258e-05 -3.27214 1.54838 3.32697 
0.0253125 0.0187969 1.97631 2.47104e+21 1.64324e-05 -0.244309 4.28415 -1.93065 
0.0249375 0.0188906 2.0488 2.43481e+21 1.61915e-05 1.23361 5.32279 0.359827 
0.0253125 0.0188906 2.0014 2.52108e+21 1.67652e-05 -3.97977 1.70799 -1.04234 
0.0256875 0.0187969 2.02486 2.6035e+21 1.73133e-05 0.248373 -1.0036 4.63386 
0.0260625 0.0187969 2.03383 2.54088e+21 1.68969e-05 -1.30583 1.97867 1.75583 
0.0256875 0.0188906 1.96002 2.45638e+21 1.63349e-05 3.7511 -0.172934 0.307741 
0.0264375 0.0194531 1.97234 2.41793e+21 1.60792e-05 -5.21404 3.63627 0.212116 
0.0275625 0.0189844 2.00398 2.46571e+21 1.6397e-05 -1.56819 -1.28243 -3.40306 
0.0271875 0.0190781 1.95612 2.47732e+21 1.64742e-05 0.541981 -1.34858 -0.314406 
0.0275625 0.0190781 1.98889 2.53427e+21 1.68529e-05 0.91388 0.442246 0.507041 
0.0256875 0.0201094 1.96718 2.44033e+21 1.62282e-05 -2.10064 0.417428 0.320445 
0.0260625 0.0201094 1.96218 2.51687e+21 1.67372e-05 0.193658 -0.222624 2.67531 
0.0298125 0.0197344 2.01906 2.31924e+21 1.54229e-05 3.44212 -2.15143 -0.123237 
0.0294375 0.0198281 1.9373 2.42928e+21 1.61547e-05 0.869692 1.09808 0.838834 
0.0264375 0.0202969 1.93588 2.49139e+21 1.65677e-05 1.91844 -1.7728 1.55323 
0.0283125 0.0202969 2.0108 2.43786e+21 1.62118e-05 1.00845 -0.531474 -2.98505 
0.0283125 0.0204844 1.95676 2.43101e+21 1.61662e-05 2.43985 1.85748 2.27229 
0.0283125 0.0205781 1.94972 2.51454e+21 1.67217e-05 -1.53431 0.414852 0.875469 
0.0298125 0.0202969 2.03635 2.39771e+21 1.59448e-05 -2.0884 -0.287465 0.247854 
0.0298125 0.0204844 2.03383 2.5813e+21 1.71656e-05 2.26603 0.119129 0.874339 
0.0271875 0.0208594 2.05073 2.53055e+21 1.68282e-05 1.32491 -1.55097 -0.0516351 
0.0275625 0.0208594 2.00524 2.3808e+21 1.58323e-05 -1.33795 0.832907 1.03941 
0.0271875 0.0209531 1.99803 2.41552e+21 1.60632e-05 0.662223 4.59489 -0.0245092 
0.0275625 0.0209531 2.01339 2.55164e+21 1.69684e-05 0.47381 2.07869 -3.3607 
0.0279375 0.0209531 2.04439 2.47602e+21 1.64655e-05 -1.34391 -1.08982 -4.24359 
0.0283125 0.0209531 2.04823 2.59917e+21 1.72845e-05 0.537498 3.18393 -2.75835 
0.0249375 0.0210469 1.99129 2.44778e+21 1.62777e-05 -1.94948 -0.514922 -0.998561 
0.0249375 0.0211406 1.99695 2.51401e+21 1.67182e-05 -0.787806 -0.253139 -0.64336 
0.0241875 0.0212344 1.92547 2.61165e+21 1.73674e-05 -0.0683703 -1.34266 -0.632582 
0.0249375 0.0213281 2.00909 2.61927e+21 1.74181e-05 4.30581 3.46675 -1.0982 
0.0256875 0.0210469 1.99546 2.49295e+21 1.65781e-05 0.569623 0.109086 -1.16888 
0.0260625 0.0212344 2.05766 2.41124e+21 1.60348e-05 -1.51726 1.29701 2.46009 
0.0260625 0.0213281 1.97605 2.42824e+21 1.61478e-05 2.32261 0.814857 -2.83902 
0.0268125 0.0214219 1.97167 2.44508e+21 1.62598e-05 0.416719 0.181522 -0.976946 
0.0264375 0.0215156 2.07048 2.35237e+21 1.56433e-05 -5.34939 1.20178 1.64347 
0.0286875 0.0212344 2.01022 2.41337e+21 1.60489e-05 1.52335 -0.676727 0.157755 
0.0286875 0.0213281 1.96686 2.40277e+21 1.59784e-05 -2.14448 -0.517912 -1.23943 
0.0076875 0.0111094 2.09564 2.53058e+21 1.68283e-05 2.51541 3.11023 0.861102 
0.0080625 0.0111094 1.98451 2.4776e+21 1.64761e-05 5.29973 2.37146 -0.0292452 
0.0076875 0.0112031 2.10648 2.74781e+21 1.8273e-05 -4.74559 2.26814 1.81612 
0.0080625 0.0112031 2.02452 2.67104e+21 1.77624e-05 3.279 3.37466 -3.42447 
0.0084375 0.0116719 2.0127 2.74994e+21 1.82871e-05 1.0298 3.92145 -0.575201 
0.0088125 0.0116719 1.97933 2.63358e+21 1.75133e-05 1.03518 -0.474059 0.0330292 
0.0084375 0.0117656 2.04899 2.6857e+21 1.78599e-05 3.47252 0.0168432 -0.996561 
0.0088125 0.0117656 2.06763 2.73572e+21 1.81926e-05 3.61825 7.45024 -5.25046 
0.0106875 0.0112969 2.08626 2.58475e+21 1.71886e-05 4.425 1.21268 -2.02891 
0.0110625 0.0112969 2.08709 2.70097e+21 1.79614e-05 7.00318 2.20704 4.40203 
0.0106875 0.0113906 1.90972 2.59527e+21 1.72586e-05 1.86064 -3.51227 1.10408 
0.0110625 0.0113906 2.12717 2.38861e+21 1.58842e-05 2.93374 1.72753 0.898085 
0.0076875 0.0124219 2.0022 2.63493e+21 1.75223e-05 -0.68399 2.27798 3.31853 
0.0080625 0.0124219 1.91829 2.80257e+21 1.86371e-05 0.163525 4.24189 2.80438 
0.0076875 0.0125156 2.01242 2.73094e+21 1.81607e-05 -1.77284 -3.72375 -1.94452 
0.0080625 0.0125156 1.9977 2.67306e+21 1.77759e-05 2.25185 0.153569 -1.94326 
0.0234375 0.0133594 2.02853 2.49746e+21 1.66081e-05 -0.227327 -1.56649 0.548158 
0.0238125 0.0133594 1.9228 2.43985e+21 1.6225e-05 -3.36539 4.30611 -2.33143 
0.0234375 0.0134531 1.95561 2.49015e+21 1.65595e-05 -3.31391 0.288317 -2.02403 
0.0238125 0.0134531 1.9779 2.38584e+21 1.58658e-05 -2.61983 2.10103 -2.31556 
0.0234375 0.0148594 1.89673 2.45557e+21 1.63295e-05 -1.19084 0.214005 -0.924956 
0.0238125 0.0148594 2.00252 2.5165e+21 1.67347e-05 -2.90916 1.40723 0.682895 
0.0234375 0.0149531 1.95108 2.43412e+21 1.61869e-05 -0.970201 -2.33593 -0.103912 
0.0238125 0.0149531 2.02993 2.39173e+21 1.5905e-05 0.274248 2.32347 0.146105 
0.0196875 0.0159844 2.03922 2.56596e+21 1.70636e-05 0.534892 5.17492 -0.864744 
0.0200625 0.0159844 2.0164 2.5518e+21 1.69695e-05 -0.334391 -1.18489 -1.30701 
0.0196875 0.0160781 2.07511 2.51158e+21 1.6702e-05 1.82752 -1.83473 -1.89346 
0.0200625 0.0160781 1.95409 2.61858e+21 1.74135e-05 -0.466682 2.84259 2.4357 
0.0211875 0.0178594 2.02302 2.48415e+21 1.65196e-05 2.603 -1.51647 0.897137 
0.0215625 0.0178594 1.9208 2.63624e+21 1.7531e-05 -1.10843 -1.93812 -0.555103 
0.0230625 0.0176719 1.93951 2.49001e+21 1.65586e-05 -1.20047 3.36135 -3.82934 
0.0226875 0.0177656 2.03152 2.40552e+21 1.59967e-05 0.360572 -1.90986 -0.926795 
0.0230625 0.0177656 1.90216 2.47177e+21 1.64373e-05 0.383769 -0.689524 -3.79876 
0.0234375 0.0178594 1.89856 2.46387e+21 1.63847e-05 -0.761152 -2.53194 1.71015 
0.0238125 0.0178594 1.99748 2.55766e+21 1.70084e-05 -3.47477 0.82021 -0.255136 
0.0234375 0.0179531 2.00407 2.42074e+21 1.60979e-05 1.82026 0.206165 -0.529285 
0.0200625 0.0180469 2.00063 2.39563e+21 1.59309e-05 0.767264 -0.291847 1.48637 
0.0196875 0.0181406 1.91512 2.71515e+21 1.80558e-05 0.350121 1.43142 -0.889712 
0.0204375 0.0184219 2.0145 2.38864e+21 1.58844e-05 -0.0647174 -2.24175 -1.30887 
0.0226875 0.0180469 2.06834 2.72926e+21 1.81496e-05 -0.777802 0.888668 -0.134704 
0.0230625 0.0180469 1.98779 2.49597e+21 1.65982e-05 -3.59211 -2.1575 2.36202 
0.0226875 0.0181406 1.88507 2.43316e+21 1.61805e-05 -0.77711 -1.93243 -2.63112 
0.0211875 0.0186094 1.91504 2.52756e+21 1.68083e-05 3.23535 -1.04439 1.48869 
0.0215625 0.0186094 1.94681 2.52026e+21 1.67597e-05 2.14099 -0.211294 0.393891 
0.0215625 0.0187031 1.91755 2.44712e+21 1.62733e-05 0.528733 -0.293624 -0.994924 
0.0200625 0.0193594 1.95636 2.42262e+21 1.61104e-05 0.432933 -2.74561 0.583767 
0.0196875 0.0194531 1.92572 2.47611e+21 1.64661e-05 3.60796 -2.80342 -1.55369 
0.0200625 0.0194531 1.97628 2.50404e+21 1.66518e-05 2.7445 1.40548 -0.316868 
0.0234375 0.0188906 1.99102 2.5091e+21 1.66855e-05 -0.935619 2.57807 1.53882 
0.0238125 0.0188906 2.08004 2.48753e+21 1.65421e-05 -0.0360158 1.28569 3.51469 
0.0219375 0.0191719 2.07119 2.45576e+21 1.63308e-05 -0.0713443 -1.20111 -3.53199 
0.0223125 0.0191719 1.98739 2.64467e+21 1.7587e-05 1.61977 3.70507 -0.263225 
0.0223125 0.0192656 1.97984 2.5895e+21 1.72202e-05 0.0754737 1.58023 1.15285 
0.0219375 0.0193594 1.99661 2.49278e+21 1.6577e-05 0.400392 -1.51957 0.787832 
0.0223125 0.0194531 2.05131 2.51567e+21 1.67292e-05 -3.30412 -3.40702 3.78523 
0.0204375 0.0199219 1.966 2.52238e+21 1.67738e-05 -0.451011 -3.85006 0.0528976 
0.0204375 0.0200156 1.96289 2.38391e+21 1.5853e-05 -0.0394247 0.386566 -1.87468 
0.0208125 0.0200156 1.98466 2.53318e+21 1.68457e-05 -1.95893 -1.13559 2.17705 
0.0234375 0.0198281 1.90823 2.40645e+21 1.60029e-05 0.778048 -3.03008 3.11675 
0.0215625 0.0199219 1.95829 2.57237e+21 1.71063e-05 0.183244 0.551421 -2.58331 
0.0219375 0.0201094 1.99142 2.56415e+21 1.70516e-05 1.28385 1.53244 -3.17611 
0.0219375 0.0202031 2.02337 2.308e+21 1.53482e-05 -0.432842 0.242261 -2.52883 
0.0200625 0.0206719 1.96872 2.47028e+21 1.64274e-05 0.171943 0.906593 -0.0481245 
0.0200625 0.0207656 1.89128 2.44169e+21 1.62372e-05 0.546296 3.7937 -0.580767 
0.0208125 0.0208594 1.89619 2.41335e+21 1.60488e-05 6.02578 -0.535349 -0.0222522 
0.0204375 0.0209531 2.04164 2.53219e+21 1.68391e-05 1.17669 2.71193 1.86499 
0.0208125 0.0209531 2.0562 2.59917e+21 1.72845e-05 2.4445 1.78343 0.472206 
0.0226875 0.0202969 2.03898 2.4847e+21 1.65232e-05 -1.09322 5.90265 -0.21203 
0.0226875 0.0203906 1.94493 2.57096e+21 1.70969e-05 0.095771 3.64262 0.790772 
0.0230625 0.0203906 2.02813 2.50658e+21 1.66687e-05 1.88274 1.21278 -4.24095 
0.0223125 0.0206719 1.93867 2.41991e+21 1.60924e-05 -2.47885 0.722915 -3.26791 
0.0230625 0.0206719 1.9827 2.47028e+21 1.64274e-05 -0.787148 -6.82345 -1.13464 
0.0196875 0.0210469 2.07523 2.59835e+21 1.7279e-05 0.573515 -0.297391 1.46708 
0.0200625 0.0211406 2.02704 2.32771e+21 1.54793e-05 0.598725 -0.293058 -1.66964 
0.0211875 0.0211406 2.03363 2.62751e+21 1.74729e-05 0.0457587 0.505676 0.0605478 
0.0215625 0.0211406 2.00476 2.50117e+21 1.66328e-05 0.157838 -2.17231 -2.18438 
0.0230625 0.0212344 2.10666 2.4816e+21 1.65026e-05 -2.68195 -0.777035 1.61674 
0.0136875 0.00998437 1.99001 2.68422e+21 1.78501e-05 5.33234 7.23562 -0.7095 
0.0140625 0.00998437 2.02952 2.63435e+21 1.75184e-05 3.23739 -5.60834 2.45066 
0.0136875 0.0100781 1.96017 2.34931e+21 1.56229e-05 2.24421 -6.03573 1.08891 
0.0140625 0.0100781 2.01436 2.34481e+21 1.5593e-05 2.45792 -3.50717 -1.24726 
0.01125 0.0031875 0 0 0 0 0 0 
0.01125 0.0035625 0 0 0 0 0 0 
0.01125 0.0046875 0 0 0 0 0 0 
0.01125 0.0050625 0 0 0 0 0 0 
0.01125 0.0061875 0 0 0 0 0 0 
0.01125 0.0065625 0 0 0 0 0 0 
0.025875 0.00496875 1.97657 2.48049e+21 1.64953e-05 -0.412377 0.0447798 -2.75136 
0.026625 0.00496875 2.0097 2.51694e+21 1.67376e-05 -1.46445 -2.50299 1.58548 
0.028875 0.00459375 2.05981 2.45879e+21 1.63509e-05 2.4548 -1.63654 0.323571 
0.029625 0.00459375 2.03971 2.50067e+21 1.66295e-05 1.782 -3.8518 1.17076 
0.028875 0.00478125 2.00793 2.3955e+21 1.59301e-05 -0.660399 1.47689 1.32737 
0.029625 0.00478125 2.04422 2.45468e+21 1.63236e-05 -2.09332 -1.53361 1.63117 
0.007875 0.00196875 2.07888 3.27674e+21 2.17903e-05 4.97001 15.7692 -3.55419 
0.008625 0.00196875 2.02602 3.29973e+21 2.19432e-05 5.19302 10.3737 0.725923 
0.007875 0.00215625 1.85079 3.2385e+21 2.1536e-05 4.91016 10.0254 3.26265 
0.008625 0.00215625 2.0286 3.16502e+21 2.10474e-05 3.20334 12.5983 1.02329 
0.006375 0.00421875 1.97145 2.91242e+21 1.93676e-05 -3.51763 5.38529 -2.38126 
0.007125 0.00421875 1.99883 2.88391e+21 1.9178e-05 -1.23308 3.9118 2.3116 
0.006375 0.00440625 2.00317 3.10153e+21 2.06252e-05 -0.00482247 2.7318 0.305901 