ITEM: TIMESTEP
500000
ITEM: NUMBER OF CELLS
43372
ITEM: BOX BOUNDS oo ao pp
0 0.2
0 0.03
-0.1 0.1
ITEM: CELLS xc yc f_out[1] f_out[2] f_out[3] f_out[4] f_out[5] f_out[6] 
0.005 0.01575 0 0 0 0 0 0 
0.005 0.01875 0 0 0 0 0 0 
0.005 0.02175 0 0 0 0 0 0 
0.005 0.02475 0 0 0 0 0 0 
0.005 0.02775 0 0 0 0 0 0 
0.015 0.02475 0 0 0 0 0 0 
0.015 0.02775 0 0 0 0 0 0 
0.005 0.01425 0 0 0 0 0 0 
0.005 0.01725 0 0 0 0 0 0 
0.005 0.02025 0 0 0 0 0 0 
0.005 0.02325 0 0 0 0 0 0 
0.005 0.02625 0 0 0 0 0 0 
0.005 0.02925 0 0 0 0 0 0 
0.015 0.02325 0 0 0 0 0 0 
0.015 0.02625 0 0 0 0 0 0 
0.015 0.02925 0.00098424 7.25493e+15 4.82453e-11 -25.9892 1.79673 -3.22528 
0.025 0.02325 0 0 0 0 0 0 
0.025 0.02625 0 0 0 0 0 0 
0.025 0.02925 0 0 0 0 0 0 
0.0025 0.003375 0 0 0 0 0 0 
0.0025 0.004125 0 0 0 0 0 0 
0.0025 0.006375 0 0 0 0 0 0 
0.0025 0.007125 0 0 0 0 0 0 
0.0025 0.009375 0 0 0 0 0 0 
0.0025 0.010125 0 0 0 0 0 0 
0.0025 0.012375 0 0 0 0 0 0 
0.0025 0.013125 0 0 0 0 0 0 
0.0075 0.013125 0 0 0 0 0 0 
0.0125 0.013125 0 0 0 0 0 0 
0.0125 0.015375 0 0 0 0 0 0 
0.0125 0.016125 0 0 0 0 0 0 
0.0125 0.018375 0 0 0 0 0 0 
0.0125 0.019125 0 0 0 0 0 0 
0.0125 0.021375 0 0 0 0 0 0 
0.0125 0.022125 0 0 0 0 0 0 
0.0175 0.022125 0 0 0 0 0 0 
0.0025 0.002625 0 0 0 0 0 0 
0.0025 0.004875 0 0 0 0 0 0 
0.0025 0.005625 0 0 0 0 0 0 
0.0025 0.007875 0 0 0 0 0 0 
0.0025 0.008625 0 0 0 0 0 0 
0.0025 0.010875 0 0 0 0 0 0 
0.0025 0.011625 0 0 0 0 0 0 
0.0125 0.013875 0 0 0 0 0 0 
0.0125 0.014625 0 0 0 0 0 0 
0.0125 0.016875 0 0 0 0 0 0 
0.0125 0.017625 0 0 0 0 0 0 
0.0125 0.019875 0 0 0 0 0 0 
0.0125 0.020625 0 0 0 0 0 0 
0.0125 0.000375 2.02768 2.32997e+21 1.54943e-05 1.60823 -1.54118 -1.20575 
0.00125 0.0001875 0 0 0 0 0 0 
0.00375 0.0001875 1.89425 1.20142e+22 7.98941e-05 33.3647 1.61932 -1.44653 
0.00125 0.0005625 0 0 0 0 0 0 
0.00625 0.0001875 1.77152 7.44251e+21 4.94927e-05 52.4068 1.89041 1.99622 
0.00875 0.0001875 2.05499 4.87274e+21 3.24037e-05 22.2033 -1.15916 1.77779 
0.00125 0.0009375 0 0 0 0 0 0 
0.00125 0.0013125 0 0 0 0 0 0 
0.01125 0.0031875 0 0 0 0 0 0 
0.01125 0.0035625 0 0 0 0 0 0 
0.01125 0.0039375 0 0 0 0 0 0 
0.01125 0.0043125 0 0 0 0 0 0 
0.01125 0.0061875 0 0 0 0 0 0 
0.01125 0.0065625 0 0 0 0 0 0 
0.01125 0.0069375 0 0 0 0 0 0 
0.01125 0.0073125 0 0 0 0 0 0 
0.01125 0.0091875 0 0 0 0 0 0 
0.01625 0.0129375 0 0 0 0 0 0 
0.01625 0.0133125 0 0 0 0 0 0 
0.01625 0.0151875 0 0 0 0 0 0 
0.01625 0.0155625 0 0 0 0 0 0 
0.01625 0.0159375 0 0 0 0 0 0 
0.01625 0.0163125 0 0 0 0 0 0 
0.01625 0.0181875 0 0 0 0 0 0 
0.01625 0.0185625 0 0 0 0 0 0 
0.01625 0.0189375 0 0 0 0 0 0 
0.01625 0.0193125 0 0 0 0 0 0 
0.01625 0.0211875 0 0 0 0 0 0 
0.01625 0.0215625 0 0 0 0 0 0 
0.00125 0.0016875 0 0 0 0 0 0 
0.00125 0.0020625 0 0 0 0 0 0 
0.00375 0.0020625 0 0 0 0 0 0 
0.01125 0.0024375 0 0 0 0 0 0 
0.01125 0.0028125 0 0 0 0 0 0 
0.01125 0.0046875 0 0 0 0 0 0 
0.01125 0.0050625 0 0 0 0 0 0 
0.01125 0.0054375 0 0 0 0 0 0 
0.01125 0.0058125 0 0 0 0 0 0 
0.01125 0.0076875 0 0 0 0 0 0 
0.01125 0.0080625 0 0 0 0 0 0 
0.01125 0.0084375 0 0 0 0 0 0 
0.01125 0.0088125 0 0 0 0 0 0 
0.01625 0.0136875 0 0 0 0 0 0 
0.01625 0.0140625 0 0 0 0 0 0 
0.01625 0.0144375 0 0 0 0 0 0 
0.01625 0.0148125 0 0 0 0 0 0 
0.01625 0.0166875 0 0 0 0 0 0 
0.01625 0.0170625 0 0 0 0 0 0 
0.01625 0.0174375 0 0 0 0 0 0 
0.01625 0.0178125 0 0 0 0 0 0 
0.01625 0.0196875 0 0 0 0 0 0 
0.01625 0.0200625 0 0 0 0 0 0 
0.01625 0.0204375 0 0 0 0 0 0 
0.01625 0.0208125 0 0 0 0 0 0 
0.003125 0.00046875 1.94137 1.23263e+22 8.19702e-05 25.7165 -7.35984 -4.0298 
0.004375 0.00046875 1.91288 1.22412e+22 8.1404e-05 37.1689 0.468915 1.08158 
0.003125 0.00065625 1.99491 1.25941e+22 8.37509e-05 28.2507 -4.87495 -4.66976 
0.005625 0.00046875 1.76192 8.59058e+21 5.71273e-05 49.2939 -0.72722 0.370077 
0.006875 0.00046875 1.6669 6.35963e+21 4.22916e-05 60.6168 5.63112 3.08888 
0.005625 0.00065625 1.81437 9.32319e+21 6.19992e-05 48.6911 -0.735976 2.19426 
0.006875 0.00065625 1.69807 6.10508e+21 4.05988e-05 56.2996 5.90302 0.509998 
0.003125 0.00084375 1.93322 1.36783e+22 9.09607e-05 25.5972 0.375326 -0.108415 
0.003125 0.00103125 1.90164 1.37762e+22 9.16115e-05 23.9083 -5.35736 1.97042 
0.006875 0.00103125 1.73681 5.55102e+21 3.69143e-05 48.6103 12.9897 -2.37706 
0.008125 0.00084375 1.98482 4.7323e+21 3.14698e-05 34.3633 12.5941 -1.84948 
0.009375 0.00084375 1.95298 4.59156e+21 3.05339e-05 4.17047 6.45446 -0.425628 
0.008125 0.00103125 2.00629 4.64889e+21 3.09151e-05 26.0357 14.1293 4.56203 
0.009375 0.00103125 1.87212 4.81199e+21 3.19998e-05 7.36651 9.59554 4.45725 
0.006875 0.00121875 1.79918 5.21519e+21 3.4681e-05 47.5508 16.3536 -1.80965 
0.009375 0.00121875 2.01318 4.99139e+21 3.31927e-05 7.21429 10.932 1.24331 
0.009375 0.00140625 2.03387 4.48838e+21 2.98477e-05 3.75468 13.0909 -2.74619 
0.009375 0.00309375 1.92229 3.63362e+21 2.41636e-05 0.0478531 13.5032 1.16759 
0.009375 0.00328125 1.91901 3.72447e+21 2.47677e-05 -1.40452 12.9362 5.37758 
0.005625 0.00384375 0 0 0 0 0 0 
0.005625 0.00403125 0 0 0 0 0 0 
0.005625 0.00421875 0 0 0 0 0 0 
0.005625 0.00440625 0 0 0 0 0 0 
0.005625 0.00609375 0 0 0 0 0 0 
0.005625 0.00628125 0 0 0 0 0 0 
0.005625 0.00646875 0 0 0 0 0 0 
0.005625 0.00665625 0 0 0 0 0 0 
0.005625 0.00684375 0 0 0 0 0 0 
0.005625 0.00703125 0 0 0 0 0 0 
0.005625 0.00721875 0 0 0 0 0 0 
0.005625 0.00740625 0 0 0 0 0 0 
0.005625 0.00909375 0 0 0 0 0 0 
0.005625 0.00928125 0 0 0 0 0 0 
0.005625 0.00946875 0 0 0 0 0 0 
0.005625 0.00965625 0 0 0 0 0 0 
0.005625 0.00984375 0 0 0 0 0 0 
0.005625 0.0100312 0 0 0 0 0 0 
0.005625 0.0102187 0 0 0 0 0 0 
0.005625 0.0104062 0 0 0 0 0 0 
0.005625 0.0120938 0 0 0 0 0 0 
0.005625 0.0122813 0 0 0 0 0 0 
0.005625 0.0124688 0 0 0 0 0 0 
0.005625 0.0126563 0 0 0 0 0 0 
0.013125 0.00309375 2.03462 2.53203e+21 1.6838e-05 -2.43117 -0.657295 -1.92399 
0.014375 0.00309375 2.00082 2.46053e+21 1.63625e-05 -0.320445 -2.64793 0.717769 
0.010625 0.00946875 1.95842 2.71266e+21 1.80392e-05 4.17633 0.0371181 -1.58343 
0.011875 0.00946875 1.82906 2.69214e+21 1.79027e-05 3.25726 3.62087 0.574141 
0.018125 0.0128438 0 0 0 0 0 0 
0.018125 0.0130313 0 0 0 0 0 0 
0.018125 0.0132188 0 0 0 0 0 0 
0.018125 0.0134063 0 0 0 0 0 0 
0.018125 0.0150937 0 0 0 0 0 0 
0.018125 0.0152812 0 0 0 0 0 0 
0.018125 0.0154687 0 0 0 0 0 0 
0.018125 0.0156563 0 0 0 0 0 0 
0.018125 0.0158438 0 0 0 0 0 0 
0.018125 0.0160313 0 0 0 0 0 0 
0.018125 0.0162188 0 0 0 0 0 0 
0.018125 0.0164062 0 0 0 0 0 0 
0.018125 0.0180937 0 0 0 0 0 0 
0.018125 0.0182812 0 0 0 0 0 0 
0.018125 0.0184687 0 0 0 0 0 0 
0.018125 0.0186562 0 0 0 0 0 0 
0.018125 0.0188437 0 0 0 0 0 0 
0.018125 0.0190312 0 0 0 0 0 0 
0.018125 0.0192187 0 0 0 0 0 0 
0.018125 0.0194062 0 0 0 0 0 0 
0.018125 0.0210937 0 0 0 0 0 0 
0.018125 0.0212812 0 0 0 0 0 0 
0.003125 0.00159375 2.01256 1.3976e+22 9.29405e-05 15.15 -0.913245 -2.07717 
0.003125 0.00178125 0 0 0 0 0 0 
0.004375 0.00178125 0 0 0 0 0 0 
0.005625 0.00159375 1.9106 8.45164e+21 5.62034e-05 18.8271 -2.94357 2.32043 
0.005625 0.00178125 0 0 0 0 0 0 
0.006875 0.00178125 1.95922 3.6258e+21 2.41116e-05 17.4645 19.3657 0.514141 
0.008125 0.00159375 1.99875 4.33321e+21 2.88158e-05 16.1089 19.5555 1.10573 
0.009375 0.00159375 1.94156 4.49976e+21 2.99234e-05 3.02029 9.96268 -2.24211 
0.008125 0.00178125 1.89771 4.07913e+21 2.71262e-05 14.4172 19.1398 -2.503 
0.009375 0.00178125 1.9871 4.52096e+21 3.00644e-05 0.526662 18.7567 -5.84757 
0.009375 0.00196875 2.0835 4.11251e+21 2.73482e-05 3.1197 9.82516 1.23841 
0.005625 0.00234375 0 0 0 0 0 0 
0.005625 0.00253125 0 0 0 0 0 0 
0.009375 0.00234375 1.8692 4.01168e+21 2.66777e-05 -0.681222 12.526 -0.945974 
0.009375 0.00253125 1.96752 3.86929e+21 2.57308e-05 -4.07682 14.8918 -0.760294 
0.009375 0.00271875 1.90805 3.56642e+21 2.37167e-05 -2.85151 9.56193 -3.07094 
0.005625 0.00459375 0 0 0 0 0 0 
0.005625 0.00478125 0 0 0 0 0 0 
0.005625 0.00496875 0 0 0 0 0 0 
0.005625 0.00515625 0 0 0 0 0 0 
0.005625 0.00534375 0 0 0 0 0 0 
0.005625 0.00553125 0 0 0 0 0 0 
0.005625 0.00571875 0 0 0 0 0 0 
0.005625 0.00590625 0 0 0 0 0 0 
0.005625 0.00759375 0 0 0 0 0 0 
0.005625 0.00778125 0 0 0 0 0 0 
0.005625 0.00796875 0 0 0 0 0 0 
0.005625 0.00815625 0 0 0 0 0 0 
0.005625 0.00834375 0 0 0 0 0 0 
0.005625 0.00853125 0 0 0 0 0 0 
0.005625 0.00871875 0 0 0 0 0 0 
0.005625 0.00890625 0 0 0 0 0 0 
0.005625 0.0105937 0 0 0 0 0 0 
0.005625 0.0107812 0 0 0 0 0 0 
0.005625 0.0109687 0 0 0 0 0 0 
0.005625 0.0111562 0 0 0 0 0 0 
0.005625 0.0113437 0 0 0 0 0 0 
0.005625 0.0115312 0 0 0 0 0 0 
0.005625 0.0117188 0 0 0 0 0 0 
0.005625 0.0119063 0 0 0 0 0 0 
0.018125 0.0135938 0 0 0 0 0 0 
0.018125 0.0137813 0 0 0 0 0 0 
0.018125 0.0139688 0 0 0 0 0 0 
0.018125 0.0141563 0 0 0 0 0 0 
0.018125 0.0143437 0 0 0 0 0 0 
0.018125 0.0145312 0 0 0 0 0 0 
0.018125 0.0147187 0 0 0 0 0 0 
0.018125 0.0149062 0 0 0 0 0 0 
0.018125 0.0165937 0 0 0 0 0 0 
0.018125 0.0167812 0 0 0 0 0 0 
0.018125 0.0169687 0 0 0 0 0 0 
0.018125 0.0171562 0 0 0 0 0 0 
0.018125 0.0173437 0 0 0 0 0 0 
0.018125 0.0175312 0 0 0 0 0 0 
0.018125 0.0177187 0 0 0 0 0 0 
0.018125 0.0179062 0 0 0 0 0 0 
0.018125 0.0195938 0 0 0 0 0 0 
0.018125 0.0197812 0 0 0 0 0 0 
0.018125 0.0199687 0 0 0 0 0 0 
0.018125 0.0201562 0 0 0 0 0 0 
0.018125 0.0203437 0 0 0 0 0 0 
0.018125 0.0205312 0 0 0 0 0 0 
0.018125 0.0207187 0 0 0 0 0 0 
0.018125 0.0209062 0 0 0 0 0 0 
0.021875 0.00196875 2.01598 2.47308e+21 1.6446e-05 7.48112 -0.446582 -0.932496 
0.020625 0.00215625 1.91791 2.29267e+21 1.52462e-05 1.47486 -3.55101 -3.23363 
0.021875 0.00215625 1.92817 2.59185e+21 1.72358e-05 1.81693 0.482891 3.35292 
0.01125 0.0016875 0 0 0 0 0 0 
0.01125 0.0020625 0 0 0 0 0 0 
0.01125 0.0009375 0 0 0 0 0 0 
0.01125 0.0013125 0 0 0 0 0 0 
0.005625 0.00346875 0 0 0 0 0 0 
0.005625 0.00365625 0 0 0 0 0 0 
0.018125 0.00309375 1.99143 2.50663e+21 1.66691e-05 3.46561 -1.70806 -0.996297 
0.018125 0.0214687 0 0 0 0 0 0 
0.018125 0.0216562 0 0 0 0 0 0 
0.005625 0.00271875 0 0 0 0 0 0 
0.005625 0.00290625 0 0 0 0 0 0 
0.015625 0.00196875 2.05979 2.65243e+21 1.76387e-05 0.570557 -3.78089 -0.389853 
0.016875 0.00196875 2.02481 2.45583e+21 1.63313e-05 2.67464 -0.339983 -0.198052 
0.015625 0.00215625 2.01714 2.38085e+21 1.58326e-05 -0.802453 3.19121 -0.865811 
0.016875 0.00215625 2.03859 2.46588e+21 1.63981e-05 3.27057 3.18873 -1.55424 
0.018125 0.00196875 1.9647 2.60415e+21 1.73176e-05 1.49678 0.851397 -2.45268 
0.019375 0.00196875 2.07498 2.67658e+21 1.77992e-05 1.08202 -0.902408 -4.80445 
0.018125 0.00215625 1.95594 2.60759e+21 1.73405e-05 0.484421 3.91028 -2.31088 
0.019375 0.00215625 2.11018 2.70207e+21 1.79688e-05 2.06623 0.226105 0.576497 
0.015625 0.00271875 2.01711 2.3853e+21 1.58622e-05 2.33577 -1.2938 -0.390323 
0.016875 0.00271875 1.91693 2.44524e+21 1.62609e-05 2.01967 -0.706335 -3.75832 
0.018125 0.00271875 1.95243 2.48771e+21 1.65432e-05 3.78281 1.83348 -3.27068 
0.019375 0.00271875 2.06016 2.47522e+21 1.64602e-05 -2.38971 -0.127265 -2.01546 
0.028125 0.00196875 1.98175 2.40409e+21 1.59872e-05 2.61397 -2.93695 0.140258 
0.029375 0.00196875 2.02536 2.3627e+21 1.5712e-05 2.97743 -0.476438 -2.04387 
0.028125 0.00215625 1.95042 2.3777e+21 1.58117e-05 -3.01007 1.40068 1.59583 
0.029375 0.00215625 1.93496 2.53201e+21 1.68379e-05 0.561785 4.09404 0.441947 
0.020625 0.00271875 1.95226 2.50019e+21 1.66263e-05 3.6846 1.76496 2.17938 
0.021875 0.00271875 2.00369 2.4952e+21 1.65931e-05 3.07072 -1.1539 3.22682 
0.021875 0.00290625 2.10686 2.58189e+21 1.71696e-05 4.64169 -1.59114 -3.55298 
0.028125 0.00234375 1.98953 2.36712e+21 1.57413e-05 3.2827 1.71694 1.15414 
0.029375 0.00234375 1.95187 2.35842e+21 1.56835e-05 4.05725 -3.73018 -1.4891 
0.029375 0.00253125 1.94622 2.54857e+21 1.6948e-05 0.620411 1.05752 -2.84595 
0.025625 0.00271875 2.05405 2.35033e+21 1.56297e-05 3.41454 2.17497 1.82745 
0.026875 0.00271875 2.02124 2.48021e+21 1.64934e-05 5.56124 1.37694 3.75721 
0.025625 0.00290625 2.06834 2.33422e+21 1.55225e-05 0.827245 -3.24729 -1.92223 
0.028125 0.00271875 1.92942 2.46273e+21 1.63771e-05 -0.44783 -2.87725 -0.81725 
0.029375 0.00271875 1.99987 2.48271e+21 1.651e-05 2.5538 -1.60586 -1.9714 
0.028125 0.00290625 2.05985 2.34356e+21 1.55847e-05 1.64386 1.93172 -0.395011 
0.0040625 0.000796875 1.95974 1.29528e+22 8.61358e-05 26.8785 0.133004 2.51042 
0.0046875 0.000796875 1.98901 1.08735e+22 7.23088e-05 34.983 -1.65475 4.42235 
0.0040625 0.000890625 1.8675 1.23518e+22 8.21392e-05 27.4781 2.76872 -1.86767 
0.0046875 0.000890625 1.94522 1.10098e+22 7.32155e-05 34.4306 -5.18934 1.0907 
0.0040625 0.00117188 1.88099 1.33277e+22 8.86292e-05 27.6157 -5.46984 -3.27931 
0.0046875 0.00117188 1.89931 1.05231e+22 6.99786e-05 26.2513 2.4721 -1.60802 
0.0040625 0.00126563 1.88665 1.24478e+22 8.27777e-05 26.514 -1.95663 1.63444 
0.0046875 0.00126563 1.98068 1.00655e+22 6.69358e-05 26.2109 2.9258 -0.878752 
0.0040625 0.00135937 1.94334 1.29081e+22 8.58388e-05 17.8308 1.26809 1.67585 
0.0046875 0.00135937 2.02041 1.13695e+22 7.56073e-05 19.4903 1.22886 -4.10045 
0.0040625 0.00145312 2.02239 1.31595e+22 8.75105e-05 18.9736 0.0258822 2.8199 
0.0046875 0.00145312 1.88597 1.02248e+22 6.79947e-05 16.9343 5.05701 2.82315 
0.0053125 0.00117188 2.00825 9.92045e+21 6.5971e-05 38.2337 -1.52303 3.64681 
0.0059375 0.00117188 1.87153 7.71848e+21 5.13279e-05 43.837 1.38295 -0.964621 
0.0053125 0.00126563 1.87089 9.9153e+21 6.59367e-05 33.2965 5.6518 -3.91822 
0.0059375 0.00126563 1.85026 7.70474e+21 5.12366e-05 38.1131 -3.90795 -2.25369 
0.0053125 0.00135937 2.00862 9.45128e+21 6.2851e-05 24.7261 2.55177 3.76368 
0.0059375 0.00135937 1.92121 7.85276e+21 5.22208e-05 44.4722 5.23395 -1.21941 
0.0053125 0.00145312 1.93894 9.08452e+21 6.04121e-05 18.9838 0.476156 -0.439355 
0.0059375 0.00145312 1.87097 8.1499e+21 5.41968e-05 21.5805 -1.67904 4.25623 
0.0065625 0.00417188 1.95258 3.17016e+21 2.10816e-05 3.04675 8.85035 6.12724 
0.0071875 0.00417188 2.0574 3.26193e+21 2.16919e-05 -3.65306 8.93706 -2.27202 
0.0065625 0.00426563 2.00057 3.4113e+21 2.26851e-05 -4.40343 5.89658 -0.554453 
0.0071875 0.00426563 2.0191 3.06926e+21 2.04106e-05 1.73535 14.0751 -1.73886 
0.0065625 0.00604688 2.02329 3.18182e+21 2.11591e-05 -0.481889 2.4611 0.653344 
0.0071875 0.00604688 2.06553 3.16685e+21 2.10595e-05 -0.223688 4.39565 1.70876 
0.0065625 0.00614063 1.91882 3.14377e+21 2.09061e-05 2.09215 3.8319 5.92658 
0.0071875 0.00614063 2.00221 3.0433e+21 2.02379e-05 -1.07104 7.93214 1.83708 
0.0065625 0.00623438 2.02071 3.27804e+21 2.17989e-05 4.26746 5.91361 1.10092 
0.0071875 0.00623438 2.06974 3.21102e+21 2.13533e-05 3.2034 6.70967 -5.75016 
0.0065625 0.00632813 2.10792 3.0353e+21 2.01847e-05 -1.65553 7.47201 0.0662045 
0.0071875 0.00632813 1.9639 2.9703e+21 1.97525e-05 1.89189 10.5235 1.5257 
0.0065625 0.00660938 2.00086 3.13608e+21 2.08549e-05 -0.00449806 4.0402 2.49091 
0.0071875 0.00660938 1.92275 3.06582e+21 2.03877e-05 -1.57139 8.13953 0.629617 
0.0065625 0.00670313 1.97791 3.0681e+21 2.04029e-05 1.5161 5.03033 0.0825618 
0.0071875 0.00670313 2.04811 3.18098e+21 2.11535e-05 -3.51482 2.17468 -0.633548 
0.0078125 0.00642188 2.04271 3.17649e+21 2.11236e-05 2.44914 9.72919 -0.427411 
0.0084375 0.00642188 1.95325 2.93539e+21 1.95204e-05 -0.469139 10.4326 0.395623 
0.0078125 0.00651563 1.86125 3.1683e+21 2.10692e-05 -2.4528 11.975 -2.92032 
0.0084375 0.00651563 1.99658 3.33922e+21 2.22058e-05 1.52465 7.24132 -1.74091 
0.0078125 0.00660938 1.90891 3.03706e+21 2.01964e-05 -3.13586 6.78358 0.277428 
0.0084375 0.00660938 1.87913 3.04939e+21 2.02784e-05 -0.40101 9.25843 -1.69335 
0.0078125 0.00670313 2.01915 3.22961e+21 2.14769e-05 -0.223774 7.13653 0.392791 
0.0084375 0.00670313 1.94474 3.17693e+21 2.11266e-05 -3.56441 8.33792 -3.45305 
0.0090625 0.00660938 1.91786 3.20144e+21 2.12896e-05 1.03347 2.76422 1.09384 
0.0096875 0.00660938 2.02863 3.44683e+21 2.29214e-05 2.38725 -1.35229 -1.34549 
0.0090625 0.00670313 2.06838 3.11209e+21 2.06954e-05 2.5324 3.62311 0.0408621 
0.0096875 0.00670313 2.08934 3.31693e+21 2.20576e-05 -0.32679 -2.52865 2.94166 
0.0065625 0.00679687 2.04399 3.28744e+21 2.18615e-05 1.10711 1.20764 5.7182 
0.0071875 0.00679687 1.95559 3.11313e+21 2.07023e-05 0.0940238 4.62693 0.525055 
0.0065625 0.00689062 2.03367 3.06439e+21 2.03782e-05 1.95633 4.56491 0.086107 
0.0065625 0.00698437 1.8845 3.03715e+21 2.0197e-05 -0.548561 1.82555 -1.36009 
0.0071875 0.00698437 2.02285 3.06844e+21 2.04052e-05 -0.344127 6.65737 -1.99415 
0.0065625 0.00707812 2.0119 3.11113e+21 2.0689e-05 -0.117369 3.1607 -1.58858 
0.0078125 0.00679687 2.01148 2.86136e+21 1.9028e-05 3.55048 9.23194 -0.683181 
0.0084375 0.00679687 1.9309 2.93729e+21 1.9533e-05 0.0018834 7.53747 -1.27425 
0.0078125 0.00689062 1.92032 3.02741e+21 2.01323e-05 -0.54173 7.41469 -0.12181 
0.0084375 0.00689062 1.96849 3.23239e+21 2.14954e-05 -1.64228 2.81954 -2.72264 
0.0084375 0.00698437 1.96428 3.05678e+21 2.03276e-05 0.387232 7.39324 -1.92771 
0.0078125 0.00707812 2.01787 3.20817e+21 2.13343e-05 -4.92625 7.18068 -0.771279 
0.0084375 0.00707812 2.01581 2.85895e+21 1.9012e-05 1.59084 6.2282 0.812903 
0.0065625 0.00735937 1.93812 3.15481e+21 2.09795e-05 -2.60265 4.49904 -0.938193 
0.0071875 0.00735937 1.99746 3.24427e+21 2.15744e-05 -0.387432 4.2081 2.24895 
0.0065625 0.00745312 2.06239 3.04571e+21 2.0254e-05 2.92258 4.43246 -3.06331 
0.0071875 0.00745312 1.86684 2.98115e+21 1.98246e-05 -2.00547 5.67613 -1.62787 
0.0078125 0.00735937 1.94828 3.04496e+21 2.0249e-05 1.96199 10.8613 1.0964 
0.0084375 0.00735937 2.10166 3.04127e+21 2.02245e-05 0.902734 6.73553 2.50651 
0.0078125 0.00745312 1.95448 3.0431e+21 2.02366e-05 1.84062 5.044 -0.437069 
0.0084375 0.00745312 2.04454 3.0759e+21 2.04548e-05 3.75534 5.69005 -1.94776 
0.0065625 0.00904687 2.00372 3.23474e+21 2.1511e-05 1.30096 2.88457 -1.40197 
0.0065625 0.00914062 1.92815 2.96454e+21 1.97142e-05 -0.336776 6.93134 1.90861 
0.0065625 0.00923437 2.01915 2.99748e+21 1.99332e-05 -0.953 1.99939 0.879206 
0.0071875 0.00923437 2.01197 2.92674e+21 1.94628e-05 0.655603 8.5953 -0.786757 
0.0065625 0.00932812 1.95912 2.91882e+21 1.94102e-05 0.831928 -0.219458 0.570688 
0.0078125 0.00904687 1.96778 3.01442e+21 2.00459e-05 2.62436 3.93312 -4.09384 
0.0078125 0.00914062 2.08941 2.9211e+21 1.94253e-05 0.747464 2.8315 -1.26072 
0.0078125 0.00923437 2.02359 3.00028e+21 1.99518e-05 -1.98257 3.23811 0.113719 
0.0078125 0.00932812 2.01368 2.73426e+21 1.81828e-05 3.30967 8.93086 -0.519881 
0.0096875 0.00923437 2.27733 2.53819e+21 1.68789e-05 6.81194 -6.06405 -2.97675 
0.0096875 0.00932812 1.90343 3.13497e+21 2.08476e-05 -2.6215 -1.78911 1.60099 
0.0065625 0.00942187 2.10809 2.98587e+21 1.98561e-05 1.13588 6.51857 0.0914815 
0.0071875 0.00942187 1.95472 2.89444e+21 1.92481e-05 -0.824769 5.45959 3.63157 
0.0065625 0.00951562 2.04449 2.6744e+21 1.77848e-05 -0.962611 2.61163 2.37664 
0.0071875 0.00951562 2.06055 2.8802e+21 1.91533e-05 2.55708 3.95438 0.562213 
0.0071875 0.00960937 1.94359 2.85775e+21 1.90041e-05 1.9229 6.00281 -0.776581 
0.0065625 0.00970312 2.04134 2.87933e+21 1.91476e-05 1.55076 3.99147 -0.00368729 
0.0071875 0.00970312 1.94265 2.87493e+21 1.91183e-05 0.0195395 3.26925 -0.92915 
0.0078125 0.00951562 1.94444 3.12283e+21 2.07668e-05 1.74336 5.90386 -2.16338 
0.0084375 0.00951562 2.00637 3.02863e+21 2.01404e-05 5.05879 2.87356 0.641636 
0.0096875 0.00942187 2.08233 3.23165e+21 2.14905e-05 -1.06061 2.20685 -0.0134946 
0.0096875 0.00951562 1.93048 2.83472e+21 1.88509e-05 4.32529 3.06109 3.4119 
0.0090625 0.00960937 1.94762 3.09237e+21 2.05642e-05 2.15024 3.90312 0.905641 
0.0096875 0.00970312 1.98253 2.85254e+21 1.89694e-05 2.27104 -1.13812 -1.74865 
0.0065625 0.00979687 2.00713 2.9607e+21 1.96887e-05 -1.71086 0.930716 2.63963 
0.0071875 0.00979687 2.00357 2.78365e+21 1.85113e-05 1.41196 1.76188 -1.09309 
0.0071875 0.00989062 2.02245 2.87261e+21 1.91029e-05 -0.51627 4.69062 -6.4003 
0.0065625 0.0100781 1.97607 2.88128e+21 1.91605e-05 0.579222 2.18574 0.692635 
0.0078125 0.00979687 2.03111 2.81692e+21 1.87325e-05 1.429 5.41352 -6.23825 
0.0096875 0.00989062 1.94771 2.78473e+21 1.85185e-05 3.55164 1.63667 -2.99904 
0.0078125 0.0100781 2.01824 2.85151e+21 1.89625e-05 0.411835 4.64114 -0.0143782 
0.0090625 0.0100781 2.03899 2.80839e+21 1.86758e-05 3.4471 1.85346 -1.2485 
0.0096875 0.0100781 2.01471 2.75987e+21 1.83532e-05 6.73746 1.02186 -4.50374 
0.0065625 0.0102656 2.11237 2.73101e+21 1.81612e-05 1.5382 -1.28408 2.50251 
0.0071875 0.0102656 1.93006 2.86293e+21 1.90385e-05 2.65227 4.09361 -1.04633 
0.0084375 0.0102656 1.94831 2.8153e+21 1.87218e-05 3.55501 0.400576 1.12879 
0.0090625 0.0102656 1.97412 2.70417e+21 1.79827e-05 2.33941 3.05678 -3.1499 
0.0096875 0.0102656 1.96033 2.71476e+21 1.80531e-05 4.48948 3.19447 -0.825614 
0.0078125 0.0103594 1.95159 2.78458e+21 1.85175e-05 3.06876 4.7677 0.311177 
0.0084375 0.0103594 2.03361 2.97074e+21 1.97554e-05 3.04368 -0.48542 -0.0744005 
0.0096875 0.0104531 1.94022 2.97528e+21 1.97856e-05 7.35437 2.86372 -0.274526 
0.0065625 0.0120469 1.86661 2.65468e+21 1.76536e-05 -0.862093 -1.5475 1.75993 
0.0065625 0.0121406 1.97368 2.83926e+21 1.88811e-05 0.0150964 2.41713 -2.59175 
0.0065625 0.0127031 2.03003 2.62889e+21 1.74821e-05 -2.73038 5.1182 -2.11227 
0.0071875 0.0127031 2.02582 2.99333e+21 1.99056e-05 -0.605178 1.1142 2.61777 
0.0090625 0.0127031 2.12398 2.74542e+21 1.8257e-05 1.19985 -1.82026 -2.75185 
0.0096875 0.0127031 1.96253 2.75919e+21 1.83486e-05 3.43036 1.51091 3.61599 
0.0190625 0.00604688 1.8262 2.53797e+21 1.68775e-05 0.858012 1.89185 1.26665 
0.0196875 0.00604688 2.15399 2.34032e+21 1.55631e-05 0.745293 1.96646 -1.72049 
0.0190625 0.00614063 1.97654 2.52134e+21 1.67669e-05 -1.97229 3.49204 3.28436 
0.0196875 0.00614063 1.8287 2.30459e+21 1.53255e-05 4.99856 -1.34925 -3.39122 
0.0165625 0.00660938 1.96846 2.47814e+21 1.64796e-05 -1.78885 -1.94812 3.99379 
0.0171875 0.00660938 1.99145 2.37951e+21 1.58237e-05 3.5417 2.45135 2.27228 
0.0165625 0.00670313 2.08445 2.36649e+21 1.57371e-05 3.72965 1.36045 -2.3224 
0.0171875 0.00670313 1.93388 2.41511e+21 1.60605e-05 4.33258 -4.19932 -2.25562 
0.0190625 0.00660938 1.92217 2.45348e+21 1.63157e-05 2.62222 3.02959 -1.01863 
0.0196875 0.00660938 2.05382 2.49047e+21 1.65616e-05 -0.38535 -2.41245 2.76128 
0.0190625 0.00670313 1.89888 2.28139e+21 1.51713e-05 6.24728 -3.13743 -1.51444 
0.0196875 0.00670313 1.9807 2.49211e+21 1.65725e-05 9.6732 -1.79684 1.72299 
0.0190625 0.00698437 2.03665 2.30231e+21 1.53103e-05 -2.73345 0.803431 -2.58583 
0.0196875 0.00698437 1.9961 2.42287e+21 1.61121e-05 0.337544 0.367071 -1.02936 
0.0190625 0.00707812 1.92919 2.36391e+21 1.572e-05 5.47265 -5.57331 -1.20525 
0.0196875 0.00707812 1.97509 2.59033e+21 1.72257e-05 0.603015 0.673206 2.17005 
0.0153125 0.00735937 1.98208 2.4655e+21 1.63956e-05 -1.07874 -0.295094 2.78295 
0.0159375 0.00735937 2.10618 2.43597e+21 1.61992e-05 1.21764 -2.79729 -0.498003 
0.0153125 0.00745312 1.94177 2.40897e+21 1.60197e-05 6.75852 -2.23697 -1.4126 
0.0159375 0.00745312 2.06706 2.36888e+21 1.57531e-05 0.929307 -5.71597 -3.31222 
0.0178125 0.00735937 1.87983 2.48395e+21 1.65183e-05 0.1863 -2.17355 -8.15897 
0.0184375 0.00735937 2.0305 2.44335e+21 1.62483e-05 5.28185 -0.743742 1.78849 
0.0178125 0.00745312 2.06087 2.51102e+21 1.66983e-05 -0.763198 -0.448237 -2.39935 
0.0184375 0.00745312 2.10981 2.55839e+21 1.70133e-05 4.74591 0.979315 1.31405 
0.0190625 0.00735937 1.97824 2.3843e+21 1.58556e-05 4.46756 -2.89278 2.75365 
0.0196875 0.00735937 2.05079 2.36953e+21 1.57574e-05 2.24025 -3.86393 -0.0182169 
0.0190625 0.00745312 1.96265 2.36524e+21 1.57288e-05 -0.130086 -4.48222 2.68851 
0.0196875 0.00745312 2.03677 2.43448e+21 1.61893e-05 5.44194 2.26915 0.864618 
0.0146875 0.00904687 1.95486 2.52803e+21 1.68114e-05 4.94286 1.01709 -0.0891424 
0.0140625 0.00914062 2.03479 2.51399e+21 1.6718e-05 1.9212 -5.98172 -0.196382 
0.0146875 0.00914062 1.97061 2.46644e+21 1.64018e-05 1.34919 1.77982 -1.09751 
0.0140625 0.00923437 1.94136 2.39728e+21 1.59419e-05 4.57508 -4.94655 0.220363 
0.0146875 0.00923437 2.03847 2.49435e+21 1.65874e-05 3.53387 -1.22023 -0.516628 
0.0140625 0.00932812 1.95742 2.46928e+21 1.64207e-05 4.66115 -4.10128 1.74383 
0.0146875 0.00932812 1.93384 2.25671e+21 1.50071e-05 4.88477 1.22395 -2.50688 
0.0103125 0.00960937 2.0285 2.65989e+21 1.76883e-05 2.84752 0.639231 -1.27879 
0.0109375 0.00960937 1.97174 2.4281e+21 1.61469e-05 3.20745 -1.84329 -3.93641 
0.0103125 0.00970312 2.018 2.62579e+21 1.74615e-05 -0.267235 2.03163 2.4783 
0.0115625 0.00960937 2.09628 2.65141e+21 1.76319e-05 5.21973 -0.364585 -1.01574 
0.0115625 0.00970312 1.98466 2.70137e+21 1.79641e-05 0.388468 3.76149 -1.30865 
0.0121875 0.00970312 1.90497 2.44943e+21 1.62887e-05 0.463461 -1.00318 2.64952 
0.0140625 0.00942187 2.00227 2.54273e+21 1.69091e-05 4.41089 -1.42254 -2.4133 
0.0146875 0.00942187 1.93082 2.42165e+21 1.6104e-05 1.26009 1.72203 2.98882 
0.0140625 0.00951562 1.85621 2.41206e+21 1.60402e-05 1.65643 -2.08014 0.967289 
0.0146875 0.00951562 2.05369 2.44061e+21 1.623e-05 3.81467 -2.48248 -1.39111 
0.0140625 0.00960937 2.03675 2.44506e+21 1.62597e-05 3.62337 -0.783949 -1.33027 
0.0146875 0.00960937 2.0184 2.60053e+21 1.72935e-05 1.79322 -3.93848 -2.21644 
0.0146875 0.00970312 1.92417 2.39904e+21 1.59536e-05 0.741425 -0.943917 -0.0951832 
0.0165625 0.00904687 2.13091 2.31486e+21 1.53938e-05 -0.824622 -2.87073 -0.105083 
0.0171875 0.00904687 1.96676 2.40793e+21 1.60128e-05 -0.452287 -4.80184 -3.43452 
0.0165625 0.00914062 1.96617 2.45158e+21 1.6303e-05 3.11859 -4.72996 2.76978 
0.0171875 0.00914062 2.02245 2.43375e+21 1.61845e-05 2.9842 -4.72156 4.92963 
0.0184375 0.00904687 1.81 2.35689e+21 1.56733e-05 -1.29283 0.651025 -3.92735 
0.0178125 0.00914062 1.9913 2.50805e+21 1.66785e-05 1.91493 -2.73109 0.768542 
0.0184375 0.00914062 1.97943 2.59125e+21 1.72318e-05 2.89917 -2.99228 0.247489 
0.0190625 0.00904687 2.0435 2.56106e+21 1.7031e-05 -1.44495 1.24735 0.0229834 
0.0196875 0.00904687 2.04958 2.42895e+21 1.61525e-05 -1.12076 0.443742 -0.0115051 
0.0190625 0.00914062 1.99826 2.53182e+21 1.68366e-05 4.14801 -0.731563 1.22617 
0.0196875 0.00914062 2.02605 2.49616e+21 1.65995e-05 -1.54671 1.34906 -2.50315 
0.0153125 0.00942187 2.00385 2.52543e+21 1.67941e-05 0.495404 -0.860344 -1.66737 
0.0153125 0.00951562 1.98529 2.32357e+21 1.54517e-05 2.10691 -0.82023 0.652103 
0.0159375 0.00951562 1.91266 2.51768e+21 1.67426e-05 3.58552 -1.9587 -0.988982 
0.0153125 0.00960937 2.0349 2.47898e+21 1.64852e-05 5.79731 -3.20553 2.77237 
0.0159375 0.00960937 1.95862 2.45919e+21 1.63536e-05 3.95285 0.915703 3.03263 
0.0153125 0.00970312 2.04588 2.32626e+21 1.54696e-05 4.41367 -1.78665 2.45155 
0.0159375 0.00970312 1.95028 2.52221e+21 1.67727e-05 4.68589 -2.17713 -1.21593 
0.0178125 0.00960937 1.99502 2.46202e+21 1.63724e-05 2.84441 -1.96843 0.753878 
0.0184375 0.00960937 2.1291 2.65706e+21 1.76695e-05 3.86485 1.29153 1.67818 
0.0178125 0.00970312 1.99646 2.46343e+21 1.63818e-05 4.99934 0.977091 0.615299 
0.0184375 0.00970312 1.97247 2.37945e+21 1.58233e-05 3.56211 -1.18923 3.73584 
0.0109375 0.00979687 1.93772 2.70048e+21 1.79582e-05 3.50697 -2.66313 -1.25647 
0.0103125 0.00989062 2.04111 2.63368e+21 1.7514e-05 4.69889 -3.36041 -1.84901 
0.0109375 0.00989062 2.0239 2.72157e+21 1.80984e-05 7.09646 -3.98585 1.61869 
0.0115625 0.00979687 2.0224 2.63393e+21 1.75157e-05 2.36959 2.13625 -1.42656 
0.0121875 0.00979687 2.01371 2.66443e+21 1.77185e-05 2.94747 -0.708026 0.0408776 
0.0115625 0.00989062 2.03302 2.75177e+21 1.82993e-05 4.68888 -2.05311 -0.0580211 
0.0115625 0.00998437 2.01538 2.76674e+21 1.83988e-05 3.2121 -0.0578159 -2.06475 
0.0121875 0.00998437 1.98384 2.59535e+21 1.72591e-05 1.58967 -3.23147 -0.48838 
0.0121875 0.0100781 2.08758 2.64128e+21 1.75645e-05 2.44811 2.65803 2.37734 
0.0128125 0.00979687 2.00438 2.57294e+21 1.711e-05 -0.509749 -3.3448 1.16438 
0.0134375 0.00979687 1.97365 2.49531e+21 1.65938e-05 3.31859 -1.68261 -3.68376 
0.0128125 0.00989062 1.99693 2.51559e+21 1.67287e-05 2.17489 -2.32997 -1.3512 
0.0134375 0.00989062 1.97084 2.50186e+21 1.66374e-05 4.90747 -4.0422 -1.18505 
0.0103125 0.0101719 1.98959 2.59558e+21 1.72606e-05 3.69521 0.937731 0.0472533 
0.0121875 0.0102656 1.95175 2.67507e+21 1.77892e-05 5.61675 -0.53453 -1.31953 
0.0109375 0.0103594 2.03648 2.7636e+21 1.8378e-05 4.31759 -0.549549 -1.9122 
0.0109375 0.0104531 1.94353 2.79079e+21 1.85587e-05 7.08168 0.653292 -1.27955 
0.0115625 0.0103594 1.97932 2.61415e+21 1.73841e-05 3.43167 -0.33595 -1.40004 
0.0115625 0.0104531 2.13073 2.61409e+21 1.73837e-05 6.06923 -1.82217 0.4591 
0.0128125 0.0101719 2.05993 2.6383e+21 1.75447e-05 6.59551 -1.62618 0.144062 
0.0134375 0.0102656 1.98824 2.5851e+21 1.71909e-05 6.34754 -0.595875 3.24404 
0.0128125 0.0103594 2.01692 2.5958e+21 1.7262e-05 3.2538 -0.161187 -2.51734 
0.0134375 0.0103594 1.99754 2.53025e+21 1.68261e-05 0.96212 -6.4116 -0.685938 
0.0128125 0.0104531 1.98824 2.35944e+21 1.56903e-05 1.96182 -2.1572 1.16899 
0.0134375 0.0104531 1.98872 2.52314e+21 1.67789e-05 3.43359 0.807301 0.0666825 
0.0140625 0.0103594 1.91331 2.6325e+21 1.75061e-05 7.95909 -3.67225 0.250254 
0.0146875 0.0103594 2.00219 2.5958e+21 1.7262e-05 4.74946 0.930781 1.16446 
0.0140625 0.0104531 2.01293 2.46078e+21 1.63642e-05 5.55688 -0.763892 0.281365 
0.0159375 0.00979687 2.07201 2.39827e+21 1.59485e-05 1.9098 0.0605855 -0.590227 
0.0153125 0.00989062 2.04131 2.55679e+21 1.70026e-05 4.45022 -3.91119 1.26873 
0.0159375 0.00989062 2.05019 2.42771e+21 1.61443e-05 5.09694 -5.4992 -1.13596 
0.0165625 0.00998437 1.97993 2.4022e+21 1.59746e-05 0.971054 -0.628552 1.23387 
0.0171875 0.00998437 2.04322 2.56543e+21 1.70601e-05 -1.24545 1.81744 -0.238301 
0.0171875 0.0100781 2.06519 2.61164e+21 1.73674e-05 2.78289 -3.12454 -1.8792 
0.0184375 0.00979687 1.9555 2.5563e+21 1.69994e-05 7.02598 2.53186 1.36329 
0.0178125 0.00989062 1.93817 2.48539e+21 1.65278e-05 4.73502 -0.829965 -1.29521 
0.0184375 0.00989062 2.00576 2.43321e+21 1.61808e-05 2.91653 -2.869 -0.852101 
0.0190625 0.00989062 2.059 2.57052e+21 1.7094e-05 1.27104 -0.113478 -1.34613 
0.0196875 0.00989062 1.90346 2.55953e+21 1.70209e-05 3.17147 -1.65046 -0.446112 