ITEM: TIMESTEP
510001
ITEM: NUMBER OF SURFS
9
ITEM: BOX BOUNDS oo ao pp
0 0.12
0 0.03
-0.1 0.1
ITEM: SURFS id v1x v1y v2x v2y 
1 0.005 0.002 0.005 0 
2 0.025 0.002 0.005 0.002 
3 0.025 0.00635 0.025 0.002 
4 0.0631 0.00635 0.025 0.00635 
5 0.0631 0.002 0.0631 0.00635 
6 0.0681 0.009 0.0631 0.002 
7 0 0.009 0.0681 0.009 
8 0 0 0 0.009 
9 0.005 0 0 0 
