ITEM: TIMESTEP
100000
ITEM: NUMBER OF CELLS
5971
ITEM: BOX BOUNDS oo ao pp
0 0.12
0 0.03
-0.1 0.1
ITEM: CELLS xc yc f_out[1] f_out[2] f_out[3] f_out[4] f_out[5] f_out[6] 
0.075 0.00075 0.969566 2.45924e+22 0.000163539 172.992 25.1404 0.743211 
0.081 0.00075 0.658514 4.76286e+21 3.1673e-05 184.072 11.7984 1.07559 
0.087 0.00075 0.394272 1.41471e+21 9.40783e-06 186.156 15.307 1.34612 
0.093 0.00075 0.29094 5.18727e+20 3.44954e-06 196.213 12.7291 0.329337 
0.099 0.00075 0.238049 3.30099e+20 2.19516e-06 192.361 5.74991 -2.97679 
0.105 0.00075 0.212391 3.06521e+20 2.03836e-06 204.077 11.0706 0.548946 
0.111 0.00075 0.350152 2.35785e+20 1.56797e-06 198.675 2.39243 4.2563 
0.117 0.00075 0.146522 9.4314e+19 6.27188e-07 221.589 -1.22615 -6.39232 
0.081 0.00225 0.555448 4.95935e+21 3.29797e-05 182.216 44.7838 0.125252 
0.087 0.00225 0.396162 1.46973e+21 9.77369e-06 192.169 29.8824 2.7265 
0.093 0.00225 0.244586 7.23074e+20 4.80844e-06 193.922 21.3264 -1.91789 
0.099 0.00225 0.214042 4.40132e+20 2.92688e-06 195.502 15.2591 -0.888917 
0.105 0.00225 0.151781 3.37959e+20 2.24742e-06 198.542 10.6838 -1.81321 
0.111 0.00225 0.138589 1.88628e+20 1.25438e-06 197.16 10.8815 -2.92752 
0.117 0.00225 0.118426 1.80769e+20 1.20211e-06 192.051 7.56396 0.520337 
0.003 0.00375 0 0 0 0 0 0 
0.009 0.00375 0 0 0 0 0 0 
0.015 0.00375 0 0 0 0 0 0 
0.021 0.00375 0 0 0 0 0 0 
0.069 0.00375 1.35156 7.74826e+21 5.15259e-05 99.4393 128.265 1.65126 
0.081 0.00375 0.463384 4.16868e+21 2.77217e-05 176.106 66.6037 1.47902 
0.087 0.00375 0.346377 1.68822e+21 1.12267e-05 186.065 49.9049 -0.597093 
0.093 0.00375 0.284539 7.73375e+20 5.14294e-06 193.548 34.843 0.877567 
0.099 0.00375 0.256113 5.32874e+20 3.54361e-06 194.065 29.2675 0.308607 
0.105 0.00375 0.164965 2.49932e+20 1.66205e-06 198.491 23.5231 1.01223 
0.111 0.00375 0.166332 2.12207e+20 1.41117e-06 188.774 15.5813 -0.175463 
0.117 0.00375 0.0844278 1.79197e+20 1.19166e-06 196.425 16.7583 -2.02367 
0.003 0.00525 0 0 0 0 0 0 
0.009 0.00525 0 0 0 0 0 0 
0.015 0.00525 0 0 0 0 0 0 
0.021 0.00525 0 0 0 0 0 0 
0.069 0.00525 1.13347 2.75169e+21 1.82987e-05 83.9246 141.995 2.58821 
0.087 0.00525 0.299562 1.91323e+21 1.2723e-05 180.52 62.8574 0.650839 
0.093 0.00525 0.267719 8.89247e+20 5.91349e-06 191.755 49.9891 0.86772 
0.099 0.00525 0.198128 4.54728e+20 3.02394e-06 191.412 41.2442 -0.0823953 
0.105 0.00525 0.167568 2.52627e+20 1.67997e-06 193.891 34.1813 0.591518 
0.111 0.00525 0.191982 2.35785e+20 1.56797e-06 197.823 21.6241 -0.914464 
0.117 0.00525 0.126753 1.31366e+20 8.73584e-07 200.366 22.3366 0.509951 
0.003 0.00675 0 0 0 0 0 0 
0.009 0.00675 0 0 0 0 0 0 
0.015 0.00675 0 0 0 0 0 0 
0.021 0.00675 0 0 0 0 0 0 
0.069 0.00675 0.930449 1.15676e+21 7.69244e-06 62.6887 155.351 -4.01111 
0.075 0.00675 0.682164 3.02329e+21 2.01049e-05 127.005 132.62 0.411583 
0.081 0.00675 0.408273 2.61459e+21 1.73871e-05 164.009 97.8977 0.292021 
0.087 0.00675 0.307355 1.68717e+21 1.12197e-05 176.998 77.6848 0.365655 
0.093 0.00675 0.231035 1.04269e+21 6.93392e-06 186.651 59.1046 -0.425825 
0.099 0.00675 0.195256 5.39686e+20 3.58891e-06 188.388 49.2968 -0.145538 
0.105 0.00675 0.175997 3.37959e+20 2.24742e-06 193.688 37.1823 0.0920023 
0.111 0.00675 0.135435 2.43645e+20 1.62024e-06 196.288 33.7468 -1.45588 
0.117 0.00675 0.153385 1.5981e+20 1.06274e-06 196.547 29.6522 0.803107 
0.003 0.00825 0 0 0 0 0 0 
0.009 0.00825 0 0 0 0 0 0 
0.015 0.00825 0 0 0 0 0 0 
0.021 0.00825 0 0 0 0 0 0 
0.027 0.00825 0 0 0 0 0 0 
0.033 0.00825 0 0 0 0 0 0 
0.039 0.00825 0 0 0 0 0 0 
0.045 0.00825 0 0 0 0 0 0 
0.051 0.00825 0 0 0 0 0 0 
0.057 0.00825 0 0 0 0 0 0 
0.063 0.00825 0 0 0 0 0 0 
0.069 0.00825 0.754083 5.93585e+20 3.94734e-06 47.1219 166.447 4.09304 
0.075 0.00825 0.626184 2.0106e+21 1.33705e-05 118.313 138.686 -1.07332 
0.093 0.00825 0.245069 9.60288e+20 6.38592e-06 182.945 71.669 -0.265197 
0.099 0.00825 0.193229 5.95893e+20 3.96269e-06 186.898 56.5486 0.293287 
0.105 0.00825 0.163785 3.23669e+20 2.1524e-06 191.259 47.7117 1.30606 
0.111 0.00825 0.141725 2.25068e+20 1.4967e-06 193.191 41.025 1.25459 
0.117 0.00825 0.1521 1.7148e+20 1.14034e-06 191.366 34.5551 1.32357 
0.003 0.00975 0 0 0 0 0 0 
0.009 0.00975 0 0 0 0 0 0 
0.015 0.00975 0 0 0 0 0 0 
0.021 0.00975 0 0 0 0 0 0 
0.027 0.00975 0 0 0 0 0 0 
0.033 0.00975 0 0 0 0 0 0 
0.039 0.00975 0 0 0 0 0 0 
0.045 0.00975 0 0 0 0 0 0 
0.051 0.00975 0 0 0 0 0 0 
0.057 0.00975 0 0 0 0 0 0 
0.063 0.00975 0 0 0 0 0 0 
0.069 0.00975 0.79808 1.9951e+20 1.32674e-06 37.194 172.331 -0.735247 
0.075 0.00975 0.633418 1.28956e+21 8.57559e-06 110.632 148.415 0.667323 
0.087 0.00975 0.285129 1.22971e+21 8.17757e-06 165.214 98.2804 -0.134112 
0.093 0.00975 0.228305 8.07111e+20 5.36729e-06 179.54 81.6603 -0.379238 
0.099 0.00975 0.200809 5.94904e+20 3.95611e-06 184.669 66.4727 -0.296938 
0.105 0.00975 0.17243 3.37354e+20 2.2434e-06 190.05 55.3822 0.390804 
0.111 0.00975 0.159704 2.12207e+20 1.41117e-06 194.223 49.3641 1.1518 
0.117 0.00975 0.122033 1.83187e+20 1.21819e-06 196.61 42.1463 0.272874 
0.003 0.01125 0 0 0 0 0 0 
0.009 0.01125 0 0 0 0 0 0 
0.015 0.01125 0 0 0 0 0 0 
0.021 0.01125 0 0 0 0 0 0 
0.027 0.01125 0 0 0 0 0 0 
0.033 0.01125 0 0 0 0 0 0 
0.039 0.01125 0 0 0 0 0 0 
0.045 0.01125 0 0 0 0 0 0 
0.051 0.01125 0 0 0 0 0 0 
0.057 0.01125 0 0 0 0 0 0 
0.063 0.01125 0 0 0 0 0 0 
0.069 0.01125 0.568889 1.2418e+20 8.25798e-07 21.744 172.583 -3.65529 
0.075 0.01125 0.509822 8.09529e+20 5.38337e-06 98.5285 153.272 0.342163 
0.081 0.01125 0.420894 1.11605e+21 7.42173e-06 136.055 132.793 -0.51035 
0.087 0.01125 0.269576 9.27421e+20 6.16735e-06 160.816 106.467 0.410458 
0.093 0.01125 0.231868 7.15215e+20 4.75618e-06 174.831 89.4773 -0.474652 
0.099 0.01125 0.180457 5.58025e+20 3.71086e-06 180.326 74.8521 -1.41447 
0.105 0.01125 0.155436 4.35416e+20 2.89552e-06 186.256 64.0536 -0.00637154 
0.111 0.01125 0.126465 2.98661e+20 1.9861e-06 189.872 52.7426 -0.0350258 
0.117 0.01125 0.126506 2.21638e+20 1.47389e-06 195.466 45.1245 -0.109746 
0.003 0.01275 0 0 0 0 0 0 
0.009 0.01275 0 0 0 0 0 0 
0.015 0.01275 0 0 0 0 0 0 
0.021 0.01275 0 0 0 0 0 0 
0.027 0.01275 0 0 0 0 0 0 
0.033 0.01275 0 0 0 0 0 0 
0.039 0.01275 0 0 0 0 0 0 
0.045 0.01275 0 0 0 0 0 0 
0.051 0.01275 0 0 0 0 0 0 
0.057 0.01275 0 0 0 0 0 0 
0.063 0.01275 0 1.38697e+18 9.22336e-09 -108.143 131.264 8.75922 
0.069 0.01275 0.59737 1.13732e+20 7.56315e-07 21.7214 177.111 -1.86433 
0.075 0.01275 0.542377 5.83915e+20 3.88303e-06 91.4093 160.387 0.0929166 
0.081 0.01275 0.425474 9.62558e+20 6.40101e-06 130.871 141.048 -0.592582 
0.087 0.01275 0.263704 7.85026e+20 5.22042e-06 154.393 113.687 -1.13477 
0.093 0.01275 0.22346 6.64359e+20 4.41799e-06 168.43 96.849 -0.294464 
0.099 0.01275 0.18666 5.3121e+20 3.53255e-06 178.59 82.0163 0.521514 
0.105 0.01275 0.149728 4.1193e+20 2.73934e-06 183.359 71.6457 0.433898 
0.111 0.01275 0.14892 3.25938e+20 2.16749e-06 187.076 60.2947 -0.155386 
0.117 0.01275 0.118313 1.90015e+20 1.2636e-06 189.832 53.5169 -0.033907 
0.003 0.01425 0 0 0 0 0 0 
0.009 0.01425 0 0 0 0 0 0 
0.015 0.01425 0 0 0 0 0 0 
0.021 0.01425 0 0 0 0 0 0 
0.027 0.01425 0 0 0 0 0 0 
0.033 0.01425 0 0 0 0 0 0 
0.039 0.01425 0 0 0 0 0 0 
0.045 0.01425 0 0 0 0 0 0 
0.051 0.01425 0 0 0 0 0 0 
0.057 0.01425 0 0 0 0 0 0 
0.063 0.01425 0 0 0 0 0 0 
0.069 0.01425 0.545061 7.94223e+19 5.28159e-07 7.60919 176.147 0.290217 
0.075 0.01425 0.5012 3.67328e+20 2.44273e-06 83.9983 161.188 -0.4219 
0.081 0.01425 0.388182 8.4014e+20 5.58693e-06 122.214 142.969 0.211244 
0.087 0.01425 0.295201 7.03632e+20 4.67916e-06 146.8 122.64 -0.0366141 
0.093 0.01425 0.229314 6.2421e+20 4.151e-06 165.197 104.778 -0.815341 
0.099 0.01425 0.187003 4.82739e+20 3.21021e-06 174.63 89.2768 0.637311 
0.105 0.01425 0.162799 3.72292e+20 2.47574e-06 180.116 78.9264 -0.669151 
0.111 0.01425 0.137442 2.58123e+20 1.71652e-06 185.613 68.1023 0.342791 
0.117 0.01425 0.133653 2.04761e+20 1.36166e-06 186.71 60.0333 -1.16068 
0.003 0.01575 0 0 0 0 0 0 
0.009 0.01575 0 0 0 0 0 0 
0.015 0.01575 0 0 0 0 0 0 
0.021 0.01575 0 0 0 0 0 0 
0.027 0.01575 0 0 0 0 0 0 
0.033 0.01575 0 0 0 0 0 0 
0.039 0.01575 0 0 0 0 0 0 
0.045 0.01575 0 0 0 0 0 0 
0.051 0.01575 0 0 0 0 0 0 
0.057 0.01575 0 0 0 0 0 0 
0.063 0.01575 2.83802e-16 1.12279e+18 7.46653e-09 -71.871 84.0041 1.06476 
0.069 0.01575 0.63759 5.61393e+19 3.73326e-07 2.35544 180.82 -1.54195 
0.075 0.01575 0.508209 2.48136e+20 1.6501e-06 75.5382 172.777 -0.634465 
0.081 0.01575 0.387151 6.66935e+20 4.43512e-06 115.274 150.563 0.0854782 
0.087 0.01575 0.308688 5.78235e+20 3.84526e-06 141.379 130.24 0.0107533 
0.093 0.01575 0.23136 5.25464e+20 3.49434e-06 159.784 110.351 0.608193 
0.099 0.01575 0.194417 4.81675e+20 3.20314e-06 172.597 96.3664 1.2647 
0.105 0.01575 0.150393 3.48064e+20 2.31462e-06 178.382 85.2861 -1.07079 
0.111 0.01575 0.137104 2.77328e+20 1.84423e-06 183.01 75.4753 0.402806 
0.117 0.01575 0.114975 2.32417e+20 1.54557e-06 187.484 63.3983 0.160949 
0.003 0.01725 0 0 0 0 0 0 
0.009 0.01725 0 0 0 0 0 0 
0.015 0.01725 0 0 0 0 0 0 
0.021 0.01725 0 0 0 0 0 0 
0.027 0.01725 0 0 0 0 0 0 
0.033 0.01725 0 0 0 0 0 0 
0.039 0.01725 0 0 0 0 0 0 
0.045 0.01725 0 0 0 0 0 0 
0.051 0.01725 0 0 0 0 0 0 
0.057 0.01725 0 0 0 0 0 0 
0.063 0.01725 0 1.02515e+18 6.81726e-09 -66.7679 156.353 34.1113 
0.069 0.01725 0.415008 6.97104e+19 4.63574e-07 3.66651 177.912 0.689643 
0.075 0.01725 0.422455 2.11181e+20 1.40436e-06 69.1911 169.728 1.93913 
0.081 0.01725 0.357978 5.13601e+20 3.41545e-06 112.3 154.672 -2.4212 
0.087 0.01725 0.295284 4.98224e+20 3.31319e-06 135.73 133.913 1.54702 
0.093 0.01725 0.237663 4.60294e+20 3.06095e-06 156.455 116.828 0.423766 
0.099 0.01725 0.174349 4.54143e+20 3.02005e-06 166.322 104.015 0.557506 
0.105 0.01725 0.149836 3.52652e+20 2.34514e-06 175.044 90.3535 -0.363239 
0.111 0.01725 0.133619 2.64489e+20 1.75885e-06 179.773 79.3952 -1.18296 
0.117 0.01725 0.129576 2.31684e+20 1.5407e-06 184.648 69.5889 -0.791493 
0.003 0.01875 0 0 0 0 0 0 
0.009 0.01875 0 0 0 0 0 0 
0.015 0.01875 0 0 0 0 0 0 
0.021 0.01875 0 0 0 0 0 0 
0.027 0.01875 0 0 0 0 0 0 
0.033 0.01875 0 0 0 0 0 0 
0.039 0.01875 0 0 0 0 0 0 
0.045 0.01875 0 0 0 0 0 0 
0.051 0.01875 0 0 0 0 0 0 
0.057 0.01875 0 0 0 0 0 0 
0.063 0.01875 0 9.4314e+17 6.27188e-09 -74.6691 118.814 -16.5463 
0.069 0.01875 0.747358 3.86688e+19 2.57147e-07 2.86906 175.062 1.48605 
0.075 0.01875 0.399952 1.51846e+20 1.00977e-06 64.6379 175.034 0.34538 
0.081 0.01875 0.33983 4.27243e+20 2.84116e-06 101.269 156.433 0.802098 
0.087 0.01875 0.30132 4.30072e+20 2.85998e-06 129.9 139.622 -0.479351 
0.093 0.01875 0.200375 3.56507e+20 2.37077e-06 150.95 121.289 0.133198 
0.099 0.01875 0.180934 3.71597e+20 2.47112e-06 162.885 108.88 -1.1855 
0.105 0.01875 0.153168 2.9426e+20 1.95683e-06 173.422 95.6759 0.363652 
0.111 0.01875 0.133759 2.21638e+20 1.47389e-06 178.395 88.008 -0.451106 
0.117 0.01875 0.135114 2.29183e+20 1.52407e-06 182.67 75.1879 1.13856 
0.003 0.02025 0 0 0 0 0 0 
0.009 0.02025 0 0 0 0 0 0 
0.015 0.02025 0 0 0 0 0 0 
0.021 0.02025 0 0 0 0 0 0 
0.027 0.02025 0 0 0 0 0 0 
0.033 0.02025 0 0 0 0 0 0 
0.039 0.02025 0 0 0 0 0 0 
0.045 0.02025 0 0 0 0 0 0 
0.051 0.02025 0 0 0 0 0 0 
0.057 0.02025 0 0 0 0 0 0 
0.063 0.02025 0 0 0 0 0 0 
0.069 0.02025 0.310347 3.92975e+19 2.61328e-07 -6.22548 171.631 -0.624215 
0.075 0.02025 0.414883 1.15273e+20 7.66564e-07 58.2086 177.804 -2.96045 
0.081 0.02025 0.348981 2.84689e+20 1.89318e-06 98.5884 160.221 0.274255 
0.087 0.02025 0.28124 3.93848e+20 2.61909e-06 124.445 142.662 -1.00197 
0.093 0.02025 0.2444 3.1962e+20 2.12547e-06 146.965 126.819 1.10108 
0.099 0.02025 0.174748 3.47565e+20 2.31131e-06 159.716 112.552 -0.0106076 
0.105 0.02025 0.140903 2.76829e+20 1.84091e-06 167.24 99.0143 -0.0476667 
0.111 0.02025 0.134434 2.26179e+20 1.50409e-06 175.415 90.7047 0.0435593 
0.117 0.02025 0.122771 1.92994e+20 1.28341e-06 179.436 80.7456 0.34845 
0.003 0.02175 0 0 0 0 0 0 
0.009 0.02175 0 0 0 0 0 0 
0.015 0.02175 0 0 0 0 0 0 
0.021 0.02175 0 0 0 0 0 0 
0.027 0.02175 0 0 0 0 0 0 
0.033 0.02175 0 0 0 0 0 0 
0.039 0.02175 0 0 0 0 0 0 
0.045 0.02175 0 0 0 0 0 0 
0.051 0.02175 0 0 0 0 0 0 
0.057 0.02175 0 0 0 0 0 0 
0.063 0.02175 0 8.13052e+17 5.4068e-09 -54.6327 118.925 -11.6424 
0.069 0.02175 0.410287 3.1709e+19 2.10865e-07 -0.343136 185.306 -1.36944 
0.075 0.02175 0.405734 7.88661e+19 5.24459e-07 56.574 178.508 -0.497256 
0.081 0.02175 0.345561 2.15459e+20 1.4328e-06 93.1935 168.681 -0.224795 
0.087 0.02175 0.266324 3.76443e+20 2.50335e-06 120.59 149.339 -0.80716 
0.093 0.02175 0.228985 3.19529e+20 2.12487e-06 141.835 132.352 -2.06853 
0.099 0.02175 0.197687 2.91073e+20 1.93563e-06 154.788 118.051 0.21183 
0.105 0.02175 0.158568 2.73999e+20 1.82209e-06 167.18 106.9 0.958909 
0.111 0.02175 0.141574 2.07328e+20 1.37873e-06 174.771 92.9674 0.524743 
0.117 0.02175 0.122905 2.08141e+20 1.38414e-06 180.25 85.1709 -0.404199 
0.003 0.02325 0 0 0 0 0 0 
0.009 0.02325 0 0 0 0 0 0 
0.015 0.02325 0 0 0 0 0 0 
0.021 0.02325 0 0 0 0 0 0 
0.027 0.02325 0 0 0 0 0 0 
0.033 0.02325 0 0 0 0 0 0 
0.039 0.02325 0 0 0 0 0 0 
0.045 0.02325 0 0 0 0 0 0 
0.051 0.02325 0 0 0 0 0 0 
0.057 0.02325 0 7.60597e+17 5.05797e-09 -71.871 84.008 0.685954 
0.063 0.02325 0.165605 1.52119e+18 1.01159e-08 -43.515 102.223 6.61278 
0.069 0.02325 0.4062 3.27057e+19 2.17493e-07 -5.26856 173.786 -2.51179 
0.075 0.02325 0.505247 8.21445e+19 5.46261e-07 48.3398 180.823 -0.59005 
0.081 0.02325 0.291448 1.7874e+20 1.18862e-06 88.5004 167.575 0.750835 
0.087 0.02325 0.271141 2.98154e+20 1.98272e-06 115.739 152.123 0.938556 
0.093 0.02325 0.213398 3.01957e+20 2.00801e-06 138.028 135.95 -0.257212 
0.099 0.02325 0.189372 2.47955e+20 1.6489e-06 150.987 120.183 0.670127 
0.105 0.02325 0.160234 2.61645e+20 1.73994e-06 162.609 110.083 -0.134625 
0.111 0.02325 0.143789 2.19052e+20 1.4567e-06 170.219 99.6698 -1.40794 
0.117 0.02325 0.129932 1.79501e+20 1.19368e-06 177.774 92.0679 0.384156 
0.003 0.02475 0 0 0 0 0 0 
0.009 0.02475 0 0 0 0 0 0 
0.015 0.02475 0 0 0 0 0 0 
0.021 0.02475 0 0 0 0 0 0 
0.027 0.02475 0 0 0 0 0 0 
0.033 0.02475 0 0 0 0 0 0 
0.039 0.02475 0 0 0 0 0 0 
0.045 0.02475 0 0 0 0 0 0 
0.051 0.02475 0 0 0 0 0 0 
0.057 0.02475 0 0 0 0 0 0 
0.063 0.02475 0 7.145e+17 4.75143e-09 -33.9919 129.252 -2.44029 
0.069 0.02475 0.471775 2.0006e+19 1.3304e-07 -0.597788 174.394 1.666 
0.075 0.02475 0.324037 6.5734e+19 4.37131e-07 43.1055 168.815 0.607213 
0.081 0.02475 0.311163 1.46473e+20 9.74043e-07 79.9392 167.215 0.521595 
0.087 0.02475 0.259199 2.45074e+20 1.62974e-06 111.586 156.368 -1.02539 
0.093 0.02475 0.214195 2.60793e+20 1.73427e-06 132.548 140.943 0.837175 
0.099 0.02475 0.202266 2.16494e+20 1.43968e-06 149.08 126.633 0.0821602 
0.105 0.02475 0.163879 2.20066e+20 1.46344e-06 158.923 115.044 1.23453 
0.111 0.02475 0.117706 1.88628e+20 1.25438e-06 167.203 102 -0.43121 
0.117 0.02475 0.125097 1.70766e+20 1.13559e-06 173.041 91.8049 -0.299729 
0.003 0.02625 0 0 0 0 0 0 
0.009 0.02625 0 0 0 0 0 0 
0.015 0.02625 0 0 0 0 0 0 
0.021 0.02625 0 0 0 0 0 0 
0.027 0.02625 0 0 0 0 0 0 
0.033 0.02625 0 0 0 0 0 0 
0.039 0.02625 0 0 0 0 0 0 
0.045 0.02625 0 0 0 0 0 0 
0.051 0.02625 0 6.73672e+17 4.47992e-09 -108.143 131.481 4.42472 
0.057 0.02625 0 0 0 0 0 0 
0.063 0.02625 0.0918966 2.69469e+18 1.79197e-08 -44.0508 155.863 0.431614 
0.069 0.02625 0.299451 1.75155e+19 1.16478e-07 -6.4942 164.715 0.400295 
0.075 0.02625 0.333788 4.85044e+19 3.22554e-07 41.0528 186.784 -0.25934 
0.081 0.02625 0.285454 1.15872e+20 7.70546e-07 79.2242 168.746 -1.72462 
0.087 0.02625 0.25817 1.88628e+20 1.25438e-06 108.988 159.884 -0.0786298 
0.093 0.02625 0.222601 2.37806e+20 1.58141e-06 131.751 146.487 0.816361 
0.099 0.02625 0.179965 2.20964e+20 1.46941e-06 144.573 128.584 0.0309589 
0.105 0.02625 0.161572 1.9267e+20 1.28126e-06 159.104 118.624 -1.09963 
0.111 0.02625 0.14956 2.02102e+20 1.34398e-06 164.987 108.314 -0.206618 
0.117 0.02625 0.116435 1.71786e+20 1.14238e-06 170.945 98.0194 -0.600458 
0.003 0.02775 0 0 0 0 0 0 
0.009 0.02775 0 0 0 0 0 0 
0.015 0.02775 0 0 0 0 0 0 
0.021 0.02775 0 0 0 0 0 0 
0.027 0.02775 0 0 0 0 0 0 
0.033 0.02775 0 0 0 0 0 0 
0.039 0.02775 0 0 0 0 0 0 
0.045 0.02775 0 0 0 0 0 0 
0.051 0.02775 0 0 0 0 0 0 
0.057 0.02775 0 0 0 0 0 0 
0.063 0.02775 0 0 0 0 0 0 
0.069 0.02775 0.353911 1.72059e+19 1.14419e-07 -3.16048 191.388 -2.82806 
0.075 0.02775 0.376486 4.77943e+19 3.17832e-07 37.2337 180.513 -0.49453 
0.081 0.02775 0.287002 1.05147e+20 6.9923e-07 76.7145 174.912 -0.394387 
0.087 0.02775 0.243808 1.63775e+20 1.0891e-06 101.756 158.638 -2.31236 
0.093 0.02775 0.230399 2.26226e+20 1.5044e-06 124.437 146.965 -0.647453 
0.099 0.02775 0.221156 1.91814e+20 1.27557e-06 141.623 132.048 -0.631318 
0.105 0.02775 0.174167 1.80344e+20 1.19929e-06 151.328 121.852 -1.42798 
0.111 0.02775 0.136495 1.92452e+20 1.2798e-06 160.874 111.793 1.51798 
0.117 0.02775 0.123338 1.64412e+20 1.09334e-06 173.001 105.209 0.650006 
0.003 0.02925 0 0 0 0 0 0 
0.009 0.02925 0 0 0 0 0 0 
0.015 0.02925 0 0 0 0 0 0 
0.021 0.02925 0 0 0 0 0 0 
0.027 0.02925 0 0 0 0 0 0 
0.033 0.02925 0 0 0 0 0 0 
0.039 0.02925 0 0 0 0 0 0 
0.045 0.02925 0 0 0 0 0 0 
0.051 0.02925 0 0 0 0 0 0 
0.057 0.02925 0 0 0 0 0 0 
0.063 0.02925 5.67605e-16 6.04577e+17 4.02044e-09 -35.8825 152.402 11.5282 
0.069 0.02925 0.404658 2.23694e+19 1.48756e-07 -6.92038 170.987 0.166336 
0.075 0.02925 0.298812 2.96243e+19 1.97001e-07 33.6851 167.656 3.47368 
0.081 0.02925 0.235399 7.19447e+19 4.78432e-07 69.4666 172.213 -0.61014 
0.087 0.02925 0.277141 1.68677e+20 1.1217e-06 98.6364 166.181 0.172144 
0.093 0.02925 0.221424 2.08579e+20 1.38705e-06 120.408 149.112 0.20212 
0.099 0.02925 0.175735 1.83187e+20 1.21819e-06 139.244 139.316 -0.280562 
0.105 0.02925 0.161643 1.5719e+20 1.04531e-06 149.433 128.209 -0.246983 
0.111 0.02925 0.147894 1.73514e+20 1.15387e-06 157.274 113.135 -0.13981 
0.117 0.02925 0.146249 1.67468e+20 1.11366e-06 167.42 105.494 0.176535 
0.0015 0.000375 0 0 0 0 0 0 
0.0015 0.001125 0 0 0 0 0 0 
0.0015 0.001875 0 0 0 0 0 0 
0.0015 0.002625 0 0 0 0 0 0 
0.0045 0.002625 0 0 0 0 0 0 
0.0075 0.002625 0 0 0 0 0 0 
0.0105 0.002625 0 0 0 0 0 0 
0.0135 0.002625 0 0 0 0 0 0 
0.0165 0.002625 0 0 0 0 0 0 
0.0195 0.002625 0 0 0 0 0 0 
0.0225 0.002625 0 0 0 0 0 0 
0.0645 0.002625 3.96001 5.73968e+23 0.00381689 0.590256 1.91568 3.2433 
0.0675 0.002625 2.20922 1.37429e+22 9.13903e-05 36.2869 116.216 -14.0497 
0.0705 0.002625 1.28128 2.11263e+22 0.00014049 124.7 96.7738 -0.397359 
0.0645 0.003375 3.90103 6.06754e+23 0.00403491 3.05747 0.330359 1.78822 
0.0645 0.004125 3.87438 5.82861e+23 0.00387602 -3.54207 -0.940132 -1.82136 
0.0255 0.007125 0 0 0 0 0 0 
0.0285 0.007125 0 0 0 0 0 0 
0.0315 0.007125 0 0 0 0 0 0 
0.0345 0.007125 0 0 0 0 0 0 
0.0375 0.007125 0 0 0 0 0 0 
0.0405 0.007125 0 0 0 0 0 0 
0.0435 0.007125 0 0 0 0 0 0 
0.0465 0.007125 0 0 0 0 0 0 
0.0495 0.007125 0 0 0 0 0 0 
0.0525 0.007125 0 0 0 0 0 0 
0.0555 0.007125 0 0 0 0 0 0 
0.0585 0.007125 0 0 0 0 0 0 
0.0645 0.006375 3.99873 5.53038e+23 0.0036777 6.02944 -0.93515 -4.23999 
0.0615 0.007125 0 0 0 0 0 0 
0.0645 0.007125 0 0 0 0 0 0 
0.0675 0.000375 3.14559 2.80301e+23 0.001864 101.33 6.31669 0.157775 
0.0705 0.000375 1.92914 1.15629e+23 0.000768933 144.854 11.107 -2.68298 
0.00375 0.0001875 0 0 0 0 0 0 
0.00525 0.0001875 3.91356 1.34001e+24 0.00891109 12.9309 8.45521 0.199924 
0.00375 0.0005625 0 0 0 0 0 0 
0.00375 0.0009375 0 0 0 0 0 0 
0.00375 0.0013125 0 0 0 0 0 0 
0.00675 0.0001875 3.91353 1.33398e+24 0.00887095 20.4243 2.12595 -2.43158 
0.00825 0.0001875 3.95348 1.24344e+24 0.00826885 25.328 3.69608 -6.19228 
0.00975 0.0001875 3.86669 1.20269e+24 0.00799791 27.8779 -1.83256 2.33304 
0.01125 0.0001875 3.81148 1.10008e+24 0.00731553 27.4112 3.21471 -5.74698 
0.01275 0.0001875 3.75572 1.05632e+24 0.00702451 31.5255 0.0452976 1.0777 
0.01425 0.0001875 3.99342 1.02312e+24 0.00680374 37.0762 -5.66068 -1.95687 
0.01575 0.0001875 3.82308 9.20505e+23 0.00612136 29.2223 5.669 -2.98137 
0.01725 0.0001875 3.89089 8.91834e+23 0.00593069 36.545 -3.38 3.49516 
0.01875 0.0001875 3.81738 8.90325e+23 0.00592066 33.3707 4.67861 -9.50399 
0.02025 0.0001875 3.72303 8.61653e+23 0.00572999 39.7428 -1.83345 2.94081 
0.02175 0.0001875 3.7453 7.68094e+23 0.00510782 47.1405 3.30042 -2.39348 
0.02325 0.0001875 3.81171 7.2735e+23 0.00483688 42.8188 6.22962 3.79555 
0.02475 0.0001875 3.47065 6.57935e+23 0.00437527 51.6188 4.60809 4.84333 
0.02625 0.0001875 3.49523 6.06628e+23 0.00403408 42.4482 -5.31575 0.628917 
0.02775 0.0001875 3.72513 5.94556e+23 0.0039538 30.1952 -4.12205 0.701644 
0.02925 0.0001875 3.55588 6.42844e+23 0.00427492 33.4896 4.26519 -2.8602 
0.03075 0.0001875 4.0156 5.97574e+23 0.00397387 20.3659 -4.11544 0.293856 
0.03225 0.0001875 4.20979 5.37213e+23 0.00357246 18.5371 -0.00435073 -0.910628 
0.03375 0.0001875 4.01575 5.96065e+23 0.00396383 5.85877 -3.90977 0.287925 
0.03525 0.0001875 3.76405 5.87011e+23 0.00390362 12.6485 -1.25269 0.619455 
0.03375 0.0005625 3.82194 6.01095e+23 0.00399728 12.8914 1.33137 1.01581 
0.03525 0.0005625 3.86076 5.83993e+23 0.00388355 14.1868 1.05909 1.99587 
0.03675 0.0001875 4.12173 6.00592e+23 0.00399394 14.5215 -2.58384 -2.35048 
0.03825 0.0001875 3.88653 6.32281e+23 0.00420467 9.94836 7.38708 -1.55387 
0.03825 0.0005625 3.89908 5.7192e+23 0.00380327 5.0632 -1.07646 3.483 
0.03975 0.0001875 4.06172 6.08137e+23 0.00404411 5.83392 -2.53518 -0.699986 
0.04125 0.0001875 4.04822 5.80974e+23 0.00386348 1.6032 -5.64604 -3.56854 
0.03975 0.0005625 3.93973 6.06125e+23 0.00403073 13.203 -1.69513 -2.79226 
0.04275 0.0001875 3.99482 6.11155e+23 0.00406418 4.37441 9.27161 0.436285 
0.04425 0.0001875 3.98358 6.15682e+23 0.00409429 8.52115 3.49792 -4.99654 
0.04275 0.0005625 3.82142 5.8852e+23 0.00391366 9.02032 -0.31992 0.655438 
0.04425 0.0005625 3.97216 5.518e+23 0.00366947 4.95698 2.79838 0.983492 
0.04575 0.0001875 3.75263 5.87011e+23 0.00390362 -0.825402 -5.43955 1.82688 
0.04725 0.0001875 4.25792 6.05119e+23 0.00402404 6.86704 1.98513 1.01463 
0.04575 0.0005625 3.83208 5.70914e+23 0.00379658 4.51082 1.41863 -0.232285 
0.04875 0.0001875 4.00168 5.82484e+23 0.00387352 21.8793 1.21169 -2.26499 
0.05025 0.0001875 4.12066 5.5683e+23 0.00370292 7.61968 2.7432 0.0718271 
0.04875 0.0005625 4.06715 5.96065e+23 0.00396383 8.05278 0.497725 1.27948 
0.05175 0.0001875 4.27023 5.77956e+23 0.00384341 16.6987 5.11289 -11.0936 
0.05325 0.0001875 3.9456 5.93047e+23 0.00394376 6.89891 -4.71097 -4.48144 
0.05175 0.0005625 4.07746 5.83993e+23 0.00388355 8.94665 0.440199 4.75041 
0.05475 0.0001875 4.13357 5.4174e+23 0.00360257 3.42604 0.845858 3.68828 
0.05625 0.0001875 4.13641 5.94556e+23 0.0039538 17.0981 0.346887 2.06542 
0.05475 0.0005625 4.16893 6.06628e+23 0.00403408 11.4439 0.514885 3.31762 
0.05625 0.0005625 4.13159 5.8349e+23 0.00388021 8.9125 0.0536083 1.74317 
0.05775 0.0001875 3.49376 5.82484e+23 0.00387352 11.1618 8.40561 4.13353 
0.05925 0.0001875 3.81119 5.91538e+23 0.00393373 19.6897 1.60607 -6.06227 
0.05775 0.0005625 4.04301 6.09646e+23 0.00405415 10.246 2.64024 -0.886503 
0.06075 0.0001875 4.32489 6.17191e+23 0.00410432 28.2339 -6.56267 -0.179968 
0.06225 0.0001875 3.89317 5.64375e+23 0.0037531 44.8828 -1.10448 7.73469 
0.06075 0.0005625 3.97605 5.85502e+23 0.00389359 28.2682 -1.24775 -0.477076 
0.06375 0.0001875 3.57482 4.57234e+23 0.00304061 52.1417 -0.234743 3.9222 
0.06525 0.0001875 3.42751 4.05928e+23 0.00269942 81.6587 -6.42136 -1.51947 
0.06375 0.0005625 3.62233 4.56731e+23 0.00303726 65.1787 -2.01469 0.496088 
0.06525 0.0005625 3.35772 3.82286e+23 0.0025422 77.634 -1.10866 1.13694 
0.00375 0.0016875 0 0 0 0 0 0 
0.00375 0.0020625 0 0 0 0 0 0 
0.06525 0.0020625 4.04176 3.38216e+23 0.00224914 19.9923 -1.08782 -3.6355 
0.06825 0.0016875 3.31157 1.74376e+23 0.0011596 85.7647 10.2394 0.23931 
0.06675 0.0020625 4.09905 2.29128e+23 0.0015237 20.3172 1.10602 -11.5193 
0.06825 0.0020625 3.67494 1.07817e+23 0.000716986 59.7005 31.621 -0.110999 
0.02475 0.0065625 0 0 0 0 0 0 
0.02625 0.0065625 0 0 0 0 0 0 
0.02775 0.0065625 0 0 0 0 0 0 
0.02925 0.0065625 0 0 0 0 0 0 
0.03075 0.0065625 0 0 0 0 0 0 
0.03225 0.0065625 0 0 0 0 0 0 
0.03375 0.0065625 0 0 0 0 0 0 
0.03525 0.0065625 0 0 0 0 0 0 
0.03675 0.0065625 0 0 0 0 0 0 
0.03825 0.0065625 0 0 0 0 0 0 
0.03975 0.0065625 0 0 0 0 0 0 
0.04125 0.0065625 0 0 0 0 0 0 
0.04275 0.0065625 0 0 0 0 0 0 
0.04425 0.0065625 0 0 0 0 0 0 
0.04575 0.0065625 0 0 0 0 0 0 
0.04725 0.0065625 0 0 0 0 0 0 
0.04875 0.0065625 0 0 0 0 0 0 
0.05025 0.0065625 0 0 0 0 0 0 
0.05175 0.0065625 0 0 0 0 0 0 
0.05325 0.0065625 0 0 0 0 0 0 
0.05475 0.0065625 0 0 0 0 0 0 
0.05625 0.0065625 0 0 0 0 0 0 
0.05775 0.0065625 0 0 0 0 0 0 
0.05925 0.0065625 0 0 0 0 0 0 
0.06075 0.0065625 0 0 0 0 0 0 
0.06225 0.0065625 0 0 0 0 0 0 
0.0735 0.001875 0.936175 2.37671e+22 0.000158051 170.833 51.3373 -0.0924539 
0.0765 0.001875 0.781383 1.30908e+22 8.70537e-05 172.828 49.9802 -2.13698 
0.0735 0.002625 0.891914 1.44705e+22 9.62286e-05 161.903 74.4844 0.788544 
0.0765 0.002625 0.695557 8.78468e+21 5.84181e-05 174.395 66.031 1.16995 
0.06375 0.0046875 4.04335 5.83993e+23 0.00388355 -0.5809 2.43911 5.97273 
0.06525 0.0046875 0 0 0 0 0 0 
0.06375 0.0050625 3.97857 6.11993e+23 0.00406976 2.17085 -2.18082 -2.57744 
0.06525 0.0050625 0 0 0 0 0 0 
0.06375 0.0054375 3.96909 5.93983e+23 0.00394999 4.83937 -1.92776 5.2997 
0.06525 0.0054375 0 0 0 0 0 0 
0.06375 0.0058125 4.09497 6.23568e+23 0.00414673 -2.38131 -1.05026 -1.81755 
0.06525 0.0058125 0 0 0 0 0 0 
0.06675 0.0009375 3.38293 3.08445e+23 0.00205116 94.6736 0.273154 0.820752 
0.06825 0.0009375 2.84751 2.2243e+23 0.00147916 103.245 11.8606 1.07502 
0.06675 0.0013125 3.34978 3.04607e+23 0.00202564 81.1461 -2.07565 -2.51734 
0.06825 0.0013125 2.93243 1.89922e+23 0.00126298 101.46 11.0264 0.0706429 
0.06975 0.0009375 2.03203 1.33398e+23 0.000887095 137.646 19.8701 0.315839 
0.07125 0.0009375 1.58152 7.54512e+22 0.000501751 156.46 21.4827 1.70616 
0.06975 0.0013125 1.93314 1.05201e+23 0.000699584 140.465 29.4525 0.0495505 
0.07125 0.0013125 1.46801 5.97143e+22 0.0003971 152.674 34.1889 3.48822 
0.004875 0.00046875 4.066 1.07925e+24 0.00717704 10.5694 7.43518 10.1701 
0.005625 0.00046875 3.76039 1.36416e+24 0.00907165 17.9009 -0.996435 0.342448 
0.004875 0.00065625 3.63649 1.21584e+24 0.00808535 20.0843 0.3843 3.23305 
0.005625 0.00065625 4.10524 1.36243e+24 0.00906018 11.3704 -3.44405 2.12277 
0.004875 0.00084375 4.14354 1.2716e+24 0.00845617 15.0223 -4.66386 -4.49826 
0.004875 0.00103125 3.89983 1.27087e+24 0.00845131 14.5752 0.116863 7.4817 
0.004875 0.00121875 3.81234 1.27872e+24 0.00850352 9.39848 -2.20043 -3.04055 
0.004875 0.00140625 3.71714 1.35209e+24 0.00899137 15.1453 -3.72873 -0.189767 
0.006375 0.00046875 3.75118 1.27482e+24 0.00847758 19.9789 -3.80565 3.34526 
0.007125 0.00046875 3.8728 1.25792e+24 0.00836519 23.389 -5.3493 0.785027 
0.006375 0.00065625 3.90607 1.23309e+24 0.00820004 19.1354 0.416485 -0.161837 
0.007125 0.00065625 3.7432 1.24689e+24 0.00829179 21.0608 -1.26321 4.40145 
0.007875 0.00046875 3.64943 1.26034e+24 0.00838124 18.9042 6.71606 -1.55926 
0.008625 0.00046875 3.9678 1.25551e+24 0.00834913 23.2199 -2.90567 -4.62423 
0.007875 0.00065625 3.73989 1.15203e+24 0.00766102 27.8279 4.12971 3.51519 
0.008625 0.00065625 3.79156 1.32449e+24 0.00880788 30.0215 -2.3709 0.716902 
0.009375 0.00046875 3.97004 1.20239e+24 0.0079959 26.7624 2.64368 0.817616 
0.010125 0.00046875 3.97745 1.12754e+24 0.00749816 33.6197 5.25727 -0.244001 
0.009375 0.00065625 3.81435 1.17963e+24 0.00784451 26.2847 -6.77764 0.990325 
0.010125 0.00065625 3.7479 1.08305e+24 0.00720227 37.0856 2.47743 -5.27509 
0.010875 0.00046875 3.94262 1.06235e+24 0.00706465 27.0971 0.724 -3.23944 
0.011625 0.00046875 3.91949 1.05752e+24 0.00703254 33.2381 -4.24607 -3.71093 
0.010875 0.00065625 3.95033 1.0934e+24 0.00727108 25.1996 3.64609 1.54555 
0.011625 0.00065625 3.8271 1.08132e+24 0.0071908 28.1901 -4.90889 2.98598 
0.006375 0.00084375 3.91746 1.23539e+24 0.00821533 15.5611 -5.25363 0.77477 
0.007125 0.00084375 3.87458 1.21929e+24 0.00810829 24.9323 -5.52707 0.634185 
0.007125 0.00103125 3.80056 1.21819e+24 0.00810099 24.0446 -2.78496 -2.09408 
0.007875 0.00084375 3.9072 1.24746e+24 0.00829561 27.5907 -0.736173 -0.00180956 
0.008625 0.00084375 3.92977 1.21124e+24 0.00805477 29.0671 -0.283368 -2.5359 
0.008625 0.00103125 3.99414 1.18088e+24 0.00785285 24.5584 -0.323247 1.02887 
0.007125 0.00121875 4.08578 1.22115e+24 0.00812064 17.9007 0.90699 -2.44548 
0.009375 0.00084375 3.92101 1.2032e+24 0.00800125 24.1225 1.13791 1.40256 
0.010125 0.00084375 3.93127 1.17771e+24 0.00783177 29.131 -4.67759 -1.64147 
0.010125 0.00103125 3.88063 1.16222e+24 0.00772879 23.5264 -1.55441 -0.59911 
0.010875 0.00084375 3.84166 1.10662e+24 0.00735901 27.5535 0.966381 5.07039 
0.011625 0.00084375 3.99068 1.07711e+24 0.00716277 32.2617 -0.798775 -6.35632 
0.010875 0.00103125 3.97255 1.09418e+24 0.0072763 25.6265 -5.18618 2.26438 
0.011625 0.00103125 3.8142 1.07443e+24 0.00714493 26.0327 0.0923986 -2.60492 
0.010125 0.00121875 4.12352 1.12921e+24 0.00750928 21.862 1.21034 -2.32477 
0.010875 0.00121875 4.00003 1.12179e+24 0.00745987 21.1289 2.09219 -0.0842534 
0.011625 0.00121875 3.8764 1.14129e+24 0.00758956 24.5127 1.80967 -2.55325 
0.012375 0.00046875 3.59864 1.04787e+24 0.00696831 28.4535 -3.22549 2.3298 
0.013125 0.00046875 3.71747 1.11789e+24 0.00743394 32.8089 -2.08416 -0.508982 
0.012375 0.00065625 3.83907 1.09167e+24 0.00725962 27.4356 -0.530375 7.38509 
0.013125 0.00065625 3.89764 9.83022e+23 0.00653709 30.4568 2.65007 6.90814 
0.013875 0.00046875 3.83195 9.99578e+23 0.00664719 27.0088 -2.41732 -0.636946 
0.014625 0.00046875 3.70629 9.65776e+23 0.00642241 38.4113 -4.1734 2.51649 
0.013875 0.00065625 3.78636 1.02959e+24 0.00684675 27.0631 -4.01305 4.69524 
0.014625 0.00065625 3.74099 1.04683e+24 0.00696143 31.2244 -1.9357 -4.07853 
0.015375 0.00046875 3.84475 9.15073e+23 0.00608523 37.6508 -0.0166693 5.15837 
0.016125 0.00046875 4.0467 9.05415e+23 0.00602101 36.2204 -0.50062 2.9627 
0.015375 0.00065625 3.75614 9.43356e+23 0.00627332 39.8034 -0.938423 -3.14201 