ITEM: TIMESTEP
90000
ITEM: NUMBER OF CELLS
5971
ITEM: BOX BOUNDS oo ao pp
0 0.12
0 0.03
-0.1 0.1
ITEM: CELLS xc yc f_out[1] f_out[2] f_out[3] f_out[4] f_out[5] f_out[6] 
0.075 0.00075 1.02095 2.49461e+22 0.000165891 173.478 25.6438 -1.45191 
0.081 0.00075 0.707365 4.47992e+21 2.97914e-05 181.2 8.5896 2.30197 
0.087 0.00075 0.385121 1.27324e+21 8.46704e-06 181.982 11.9821 6.69219 
0.093 0.00075 0.201079 6.3662e+20 4.23352e-06 196.94 12.3445 3.31433 
0.099 0.00075 0.28449 2.35785e+20 1.56797e-06 203.251 2.97853 -10.5043 
0.105 0.00075 0.16333 2.35785e+20 1.56797e-06 212.107 7.63051 9.55023 
0.111 0.00075 0.139101 1.6505e+20 1.09758e-06 171.741 3.13271 9.15325 
0.117 0.00075 0.250391 7.07355e+19 4.70391e-07 171.788 2.52375 7.14102 
0.081 0.00225 0.584703 5.17941e+21 3.44431e-05 181.477 49.105 -1.5484 
0.087 0.00225 0.390029 1.44615e+21 9.61689e-06 187.133 29.0393 0.423746 
0.093 0.00225 0.305401 6.99496e+20 4.65165e-06 193.294 22.2154 3.14163 
0.099 0.00225 0.275388 4.24413e+20 2.82235e-06 189.888 22.2615 0.995501 
0.105 0.00225 0.138377 2.67223e+20 1.77703e-06 194.008 13.4517 -3.21598 
0.111 0.00225 0.1548 1.96488e+20 1.30664e-06 199.761 9.89344 -5.61206 
0.117 0.00225 0.1318 1.02174e+20 6.79454e-07 197.161 9.02785 0.0862048 
0.003 0.00375 0 0 0 0 0 0 
0.009 0.00375 0 0 0 0 0 0 
0.015 0.00375 0 0 0 0 0 0 
0.021 0.00375 0 0 0 0 0 0 
0.069 0.00375 1.32638 7.58865e+21 5.04645e-05 100.567 123.625 -0.30152 
0.081 0.00375 0.474508 4.08851e+21 2.71886e-05 176.552 66.6126 -1.12062 
0.087 0.00375 0.373131 1.68822e+21 1.12267e-05 186.963 49.3979 1.19352 
0.093 0.00375 0.259665 7.12071e+20 4.73527e-06 191.857 35.3791 -1.59273 
0.099 0.00375 0.224022 4.85717e+20 3.23002e-06 191.416 22.4023 -0.447267 
0.105 0.00375 0.207174 2.59364e+20 1.72477e-06 198.343 24.6261 -0.846677 
0.111 0.00375 0.172903 2.21638e+20 1.47389e-06 191.75 16.1508 3.46194 
0.117 0.00375 0.146911 1.50902e+20 1.0035e-06 201.154 13.5112 0.52761 
0.003 0.00525 0 0 0 0 0 0 
0.009 0.00525 0 0 0 0 0 0 
0.015 0.00525 0 0 0 0 0 0 
0.021 0.00525 0 0 0 0 0 0 
0.069 0.00525 1.04722 2.67914e+21 1.78163e-05 82.5954 141.422 -2.70964 
0.087 0.00525 0.328014 1.90986e+21 1.27006e-05 182 64.7371 0.90876 
0.093 0.00525 0.223548 8.08406e+20 5.3759e-06 185.539 48.4765 -0.367912 
0.099 0.00525 0.2189 4.44623e+20 2.95675e-06 192.015 37.9271 0.305945 
0.105 0.00525 0.176948 2.69469e+20 1.79197e-06 196.248 29.7114 -1.68832 
0.111 0.00525 0.223964 1.78523e+20 1.18718e-06 191.4 27.3918 1.03784 
0.117 0.00525 0.120735 1.78523e+20 1.18718e-06 191.819 24.2287 0.473622 
0.003 0.00675 0 0 0 0 0 0 
0.009 0.00675 0 0 0 0 0 0 
0.015 0.00675 0 0 0 0 0 0 
0.021 0.00675 0 0 0 0 0 0 
0.069 0.00675 0.925397 1.15676e+21 7.69244e-06 65.2063 157.667 1.07186 
0.075 0.00675 0.654402 3.20406e+21 2.1307e-05 125.884 127.566 -0.525739 
0.081 0.00675 0.428215 2.53862e+21 1.68818e-05 161.184 99.4123 0.924214 
0.087 0.00675 0.316033 1.66359e+21 1.10629e-05 177.235 75.6032 0.094353 
0.093 0.00675 0.236873 1.07937e+21 7.17782e-06 184.047 62.3673 -2.31208 
0.099 0.00675 0.190173 5.05628e+20 3.36243e-06 187.947 48.7265 1.60609 
0.105 0.00675 0.153962 2.82942e+20 1.88157e-06 191.52 37.0537 1.17681 
0.111 0.00675 0.134544 1.83388e+20 1.21953e-06 202.215 35.9641 1.72932 
0.117 0.00675 0.205716 1.44091e+20 9.58204e-07 196.407 25.2334 -0.0561823 
0.003 0.00825 0 0 0 0 0 0 
0.009 0.00825 0 0 0 0 0 0 
0.015 0.00825 0 0 0 0 0 0 
0.021 0.00825 0 0 0 0 0 0 
0.027 0.00825 0 0 0 0 0 0 
0.033 0.00825 0 0 0 0 0 0 
0.039 0.00825 0 0 0 0 0 0 
0.045 0.00825 0 0 0 0 0 0 
0.051 0.00825 0 0 0 0 0 0 
0.057 0.00825 0 0 0 0 0 0 
0.063 0.00825 0 0 0 0 0 0 
0.069 0.00825 0.881517 5.24333e+20 3.48682e-06 48.9808 159.396 0.487307 
0.075 0.00825 0.61514 2.10492e+21 1.39977e-05 115.196 141.436 -0.0888147 
0.093 0.00825 0.214519 8.83122e+20 5.87276e-06 180.516 71.1827 1.01015 
0.099 0.00825 0.184892 6.23759e+20 4.148e-06 186.52 56.9553 0.919799 
0.105 0.00825 0.174241 3.66539e+20 2.43748e-06 192.869 46.7996 0.390469 
0.111 0.00825 0.174636 2.16494e+20 1.43968e-06 192.403 41.9571 -0.587158 
0.117 0.00825 0.118421 1.75767e+20 1.16885e-06 192.002 32.9316 -0.782904 
0.003 0.00975 0 0 0 0 0 0 
0.009 0.00975 0 0 0 0 0 0 
0.015 0.00975 0 0 0 0 0 0 
0.021 0.00975 0 0 0 0 0 0 
0.027 0.00975 0 0 0 0 0 0 
0.033 0.00975 0 0 0 0 0 0 
0.039 0.00975 0 0 0 0 0 0 
0.045 0.00975 0 0 0 0 0 0 
0.051 0.00975 0 0 0 0 0 0 
0.057 0.00975 0 0 0 0 0 0 
0.063 0.00975 0 0 0 0 0 0 
0.069 0.00975 0.756585 2.21275e+20 1.47148e-06 35.8287 168.034 2.49679 
0.075 0.00975 0.598078 1.4002e+21 9.31134e-06 109.925 146.655 -1.33134 
0.087 0.00975 0.297509 1.16986e+21 7.77955e-06 165.675 98.9258 0.294251 
0.093 0.00975 0.230821 8.30689e+20 5.52408e-06 177.968 81.6959 -1.13862 
0.099 0.00975 0.171225 5.69512e+20 3.78725e-06 186.369 69.5122 -0.685562 
0.105 0.00975 0.156061 3.6456e+20 2.42432e-06 184.464 55.4519 1.98039 
0.111 0.00975 0.141389 2.53922e+20 1.68858e-06 192.784 47.6591 0.51512 
0.117 0.00975 0.137314 1.23334e+20 8.20169e-07 193.932 41.0682 -0.0629169 
0.003 0.01125 0 0 0 0 0 0 
0.009 0.01125 0 0 0 0 0 0 
0.015 0.01125 0 0 0 0 0 0 
0.021 0.01125 0 0 0 0 0 0 
0.027 0.01125 0 0 0 0 0 0 
0.033 0.01125 0 0 0 0 0 0 
0.039 0.01125 0 0 0 0 0 0 
0.045 0.01125 0 0 0 0 0 0 
0.051 0.01125 0 0 0 0 0 0 
0.057 0.01125 0 0 0 0 0 0 
0.063 0.01125 0 0 0 0 0 0 
0.069 0.01125 0.715008 1.25752e+20 8.36251e-07 23.3457 176.053 3.1589 
0.075 0.01125 0.566679 7.76519e+20 5.16385e-06 104.634 155.899 0.260619 
0.081 0.01125 0.397475 1.22294e+21 8.13254e-06 134.036 131.488 -0.151903 
0.087 0.01125 0.299392 9.8401e+20 6.54367e-06 161.014 105.773 -0.483262 
0.093 0.01125 0.225626 7.63944e+20 5.08023e-06 172.318 88.0004 -1.544 
0.099 0.01125 0.194433 6.11469e+20 4.06627e-06 182.841 77.0285 -1.10967 
0.105 0.01125 0.170274 3.89831e+20 2.59238e-06 186.745 62.8768 0.0822688 
0.111 0.01125 0.144868 2.93945e+20 1.95474e-06 190.476 53.4568 0.810252 
0.117 0.01125 0.123452 1.77625e+20 1.1812e-06 191.468 44.8817 -0.179315 
0.003 0.01275 0 0 0 0 0 0 
0.009 0.01275 0 0 0 0 0 0 
0.015 0.01275 0 0 0 0 0 0 
0.021 0.01275 0 0 0 0 0 0 
0.027 0.01275 0 0 0 0 0 0 
0.033 0.01275 0 0 0 0 0 0 
0.039 0.01275 0 0 0 0 0 0 
0.045 0.01275 0 0 0 0 0 0 
0.051 0.01275 0 0 0 0 0 0 
0.057 0.01275 0 0 0 0 0 0 
0.063 0.01275 0 0 0 0 0 0 
0.069 0.01275 0.618266 1.16506e+20 7.74762e-07 9.86368 172.307 0.0445123 
0.075 0.01275 0.501799 5.11792e+20 3.40342e-06 90.7305 158.6 -1.97576 
0.081 0.01275 0.405985 1.1179e+21 7.43403e-06 127.016 136.357 0.621514 
0.087 0.01275 0.294139 7.64221e+20 5.08207e-06 156.777 115.024 -0.264986 
0.093 0.01275 0.200622 6.42168e+20 4.27041e-06 169.327 95.6682 0.246324 
0.099 0.01275 0.17852 5.09018e+20 3.38497e-06 178.127 82.3265 -0.950913 
0.105 0.01275 0.17107 4.31348e+20 2.86846e-06 184.492 69.537 0.445622 
0.111 0.01275 0.142697 2.80168e+20 1.86312e-06 188.904 61.3428 -0.975126 
0.117 0.01275 0.113256 2.02498e+20 1.34661e-06 188.732 53.4316 0.699591 
0.003 0.01425 0 0 0 0 0 0 
0.009 0.01425 0 0 0 0 0 0 
0.015 0.01425 0 0 0 0 0 0 
0.021 0.01425 0 0 0 0 0 0 
0.027 0.01425 0 0 0 0 0 0 
0.033 0.01425 0 0 0 0 0 0 
0.039 0.01425 0 0 0 0 0 0 
0.045 0.01425 0 0 0 0 0 0 
0.051 0.01425 0 0 0 0 0 0 
0.057 0.01425 0 0 0 0 0 0 
0.063 0.01425 0 0 0 0 0 0 
0.069 0.01425 0.505467 9.30731e+19 6.18936e-07 12.1534 170.771 0.450956 
0.075 0.01425 0.44837 3.62364e+20 2.40972e-06 82.1867 163.964 1.09828 
0.081 0.01425 0.38108 8.11597e+20 5.39712e-06 123.12 143.25 -1.64153 
0.087 0.01425 0.290456 6.76331e+20 4.4976e-06 147.671 121.278 0.484195 
0.093 0.01425 0.215594 6.57716e+20 4.37381e-06 164.088 105.128 -0.409341 
0.099 0.01425 0.188925 4.65365e+20 3.09468e-06 173.012 89.0099 0.631534 
0.105 0.01425 0.161998 3.79738e+20 2.52526e-06 180.813 79.3772 1.2417 
0.111 0.01425 0.130626 2.75496e+20 1.83205e-06 184.903 68.4529 0.290874 
0.117 0.01425 0.116033 1.79941e+20 1.19661e-06 189.855 60.4361 -0.284456 
0.003 0.01575 0 0 0 0 0 0 
0.009 0.01575 0 0 0 0 0 0 
0.015 0.01575 0 0 0 0 0 0 
0.021 0.01575 0 0 0 0 0 0 
0.027 0.01575 0 0 0 0 0 0 
0.033 0.01575 0 0 0 0 0 0 
0.039 0.01575 0 0 0 0 0 0 
0.045 0.01575 0 0 0 0 0 0 
0.051 0.01575 0 0 0 0 0 0 
0.057 0.01575 0 0 0 0 0 0 
0.063 0.01575 0 0 0 0 0 0 
0.069 0.01575 0.386095 6.39988e+19 4.25592e-07 10.6524 175.329 1.66008 
0.075 0.01575 0.469645 2.50381e+20 1.66504e-06 76.3763 171.11 -0.731224 
0.081 0.01575 0.377702 6.25392e+20 4.15886e-06 115.337 149.979 0.0758977 
0.087 0.01575 0.291488 5.63639e+20 3.7482e-06 140.218 128.679 -1.52206 
0.093 0.01575 0.229906 5.18727e+20 3.44954e-06 159.214 110.804 -0.00640132 
0.099 0.01575 0.186559 4.80552e+20 3.19567e-06 170.222 95.8462 -0.34741 
0.105 0.01575 0.161541 3.66028e+20 2.43409e-06 179.604 83.6091 -1.30461 
0.111 0.01575 0.150691 2.9417e+20 1.95623e-06 182.176 75.3069 -0.432384 
0.117 0.01575 0.121701 2.22312e+20 1.47837e-06 184.656 64.201 -0.026708 
0.003 0.01725 0 0 0 0 0 0 
0.009 0.01725 0 0 0 0 0 0 
0.015 0.01725 0 0 0 0 0 0 
0.021 0.01725 0 0 0 0 0 0 
0.027 0.01725 0 0 0 0 0 0 
0.033 0.01725 0 0 0 0 0 0 
0.039 0.01725 0 0 0 0 0 0 
0.045 0.01725 0 0 0 0 0 0 
0.051 0.01725 0 0 0 0 0 0 
0.057 0.01725 0 0 0 0 0 0 
0.063 0.01725 0 0 0 0 0 0 
0.069 0.01725 0.433895 5.22828e+19 3.47681e-07 1.52639 172.662 -1.21466 
0.075 0.01725 0.422331 2.04005e+20 1.35664e-06 70.4652 172.168 0.579282 
0.081 0.01725 0.359916 5.14627e+20 3.42227e-06 108.539 153.843 1.95357 
0.087 0.01725 0.307492 5.79211e+20 3.85175e-06 137.746 134.832 0.237092 
0.093 0.01725 0.211858 4.76696e+20 3.17003e-06 153.027 116.695 0.277369 
0.099 0.01725 0.18457 4.0596e+20 2.69964e-06 164.787 101.29 0.272251 
0.105 0.01725 0.156091 3.46502e+20 2.30424e-06 174.623 90.4308 -0.0823903 
0.111 0.01725 0.142491 2.26559e+20 1.50662e-06 183.121 81.8351 -0.641203 
0.117 0.01725 0.117438 2.29634e+20 1.52707e-06 184.024 70.5 -0.555234 
0.003 0.01875 0 0 0 0 0 0 
0.009 0.01875 0 0 0 0 0 0 
0.015 0.01875 0 0 0 0 0 0 
0.021 0.01875 0 0 0 0 0 0 
0.027 0.01875 0 0 0 0 0 0 
0.033 0.01875 0 0 0 0 0 0 
0.039 0.01875 0 0 0 0 0 0 
0.045 0.01875 0 0 0 0 0 0 
0.051 0.01875 0 0 0 0 0 0 
0.057 0.01875 0 0 0 0 0 0 
0.063 0.01875 -1.13521e-15 9.4314e+17 6.27188e-09 -37.4802 142.246 -6.82194 
0.069 0.01875 0.505711 3.96119e+19 2.63419e-07 -5.40997 163.047 2.92145 
0.075 0.01875 0.432236 1.36755e+20 9.09423e-07 61.697 168.716 2.02521 
0.081 0.01875 0.333783 3.66882e+20 2.43976e-06 104.769 158.194 -1.41855 
0.087 0.01875 0.292193 5.25329e+20 3.49344e-06 130.383 139.817 0.530655 
0.093 0.01875 0.221044 3.77256e+20 2.50875e-06 151.316 120.98 -0.650774 
0.099 0.01875 0.173835 3.67825e+20 2.44603e-06 160.499 107.252 1.7758 
0.105 0.01875 0.163934 2.81056e+20 1.86902e-06 170.595 95.207 -0.283109 
0.111 0.01875 0.145422 2.48989e+20 1.65578e-06 179.644 86.082 1.23068 
0.117 0.01875 0.115435 2.32013e+20 1.54288e-06 181.943 74.4375 0.138421 
0.003 0.02025 0 0 0 0 0 0 
0.009 0.02025 0 0 0 0 0 0 
0.015 0.02025 0 0 0 0 0 0 
0.021 0.02025 0 0 0 0 0 0 
0.027 0.02025 0 0 0 0 0 0 
0.033 0.02025 0 0 0 0 0 0 
0.039 0.02025 0 0 0 0 0 0 
0.045 0.02025 0 0 0 0 0 0 
0.051 0.02025 0 0 0 0 0 0 
0.057 0.02025 0 8.73278e+17 5.8073e-09 -92.5147 103.388 -15.4198 
0.063 0.02025 1.13521e-15 8.73278e+17 5.8073e-09 -79.1331 132.767 -0.0541434 
0.069 0.02025 0.545605 3.49311e+19 2.32292e-07 -1.04339 179.318 -2.2389 
0.075 0.02025 0.47157 1.1178e+20 7.43334e-07 57.5338 181.249 0.480874 
0.081 0.02025 0.357373 2.89928e+20 1.92802e-06 97.2816 160.118 -1.00694 
0.087 0.02025 0.280928 4.38386e+20 2.91526e-06 125.833 144.132 -0.30157 
0.093 0.02025 0.211311 3.85989e+20 2.56683e-06 146.457 127.242 -1.30548 
0.099 0.02025 0.186954 3.43198e+20 2.28227e-06 160.457 113.137 -0.11101 
0.105 0.02025 0.157251 3.12634e+20 2.07901e-06 168.155 98.7438 1.21878 
0.111 0.02025 0.138872 2.38405e+20 1.58539e-06 176.208 89.6796 0.0936581 
0.117 0.02025 0.118374 1.92121e+20 1.27761e-06 181.222 81.6262 0.800302 
0.003 0.02175 0 0 0 0 0 0 
0.009 0.02175 0 0 0 0 0 0 
0.015 0.02175 0 0 0 0 0 0 
0.021 0.02175 0 0 0 0 0 0 
0.027 0.02175 0 0 0 0 0 0 
0.033 0.02175 0 0 0 0 0 0 
0.039 0.02175 0 0 0 0 0 0 
0.045 0.02175 0 0 0 0 0 0 
0.051 0.02175 0 0 0 0 0 0 
0.057 0.02175 0 0 0 0 0 0 
0.063 0.02175 0.0739452 1.6261e+18 1.08136e-08 -46.0082 123.353 0.488855 
0.069 0.02175 0.363365 3.0896e+19 2.05458e-07 -2.60493 185.256 1.30888 
0.075 0.02175 0.36327 7.48008e+19 4.97425e-07 48.3 181.68 0.316976 
0.081 0.02175 0.327245 2.38224e+20 1.58419e-06 90.9091 162.372 -0.834916 
0.087 0.02175 0.269793 3.55304e+20 2.36277e-06 119.521 147.125 -0.196941 
0.093 0.02175 0.219699 3.30912e+20 2.20057e-06 139.607 128.146 0.131376 
0.099 0.02175 0.182101 3.13838e+20 2.08702e-06 155.761 118.471 -0.242541 
0.105 0.02175 0.161946 2.61803e+20 1.74099e-06 165.81 105.44 -0.110507 
0.111 0.02175 0.134161 2.34972e+20 1.56256e-06 172.424 95.0995 0.189755 
0.117 0.02175 0.124404 1.94319e+20 1.29222e-06 178.358 85.2607 -0.450385 
0.003 0.02325 0 0 0 0 0 0 
0.009 0.02325 0 0 0 0 0 0 
0.015 0.02325 0 0 0 0 0 0 
0.021 0.02325 0 0 0 0 0 0 
0.027 0.02325 0 0 0 0 0 0 
0.033 0.02325 0 0 0 0 0 0 
0.039 0.02325 0 0 0 0 0 0 
0.045 0.02325 0 0 0 0 0 0 
0.051 0.02325 0 0 0 0 0 0 
0.057 0.02325 0 0 0 0 0 0 
0.063 0.02325 0.0532091 1.52119e+18 1.01159e-08 -58.4787 185.297 3.21978 
0.069 0.02325 0.398381 2.35785e+19 1.56797e-07 -5.34487 169.308 -3.55114 
0.075 0.02325 0.32007 7.98627e+19 5.31087e-07 48.1707 175.831 1.15109 
0.081 0.02325 0.279259 1.85586e+20 1.23414e-06 90.2309 166.27 -1.49808 
0.087 0.02325 0.282698 3.06521e+20 2.03836e-06 112.863 152.547 -0.315505 
0.093 0.02325 0.202243 3.15648e+20 2.09906e-06 137.081 136.625 0.204746 
0.099 0.02325 0.175265 2.49476e+20 1.65901e-06 153.45 122.429 -0.592461 
0.105 0.02325 0.153648 2.52518e+20 1.67925e-06 162.397 109.383 -1.85517 
0.111 0.02325 0.142006 2.05361e+20 1.36565e-06 171.054 99.5741 -0.453286 
0.117 0.02325 0.138405 1.84064e+20 1.22403e-06 175.14 89.1691 0.685438 
0.003 0.02475 0 0 0 0 0 0 
0.009 0.02475 0 0 0 0 0 0 
0.015 0.02475 0 0 0 0 0 0 
0.021 0.02475 0 0 0 0 0 0 
0.027 0.02475 0 0 0 0 0 0 
0.033 0.02475 0 0 0 0 0 0 
0.039 0.02475 0 0 0 0 0 0 
0.045 0.02475 0 0 0 0 0 0 
0.051 0.02475 0 0 0 0 0 0 
0.057 0.02475 0 0 0 0 0 0 
0.063 0.02475 0.039566 2.858e+18 1.90057e-08 -54.7361 126.821 3.01459 
0.069 0.02475 0.411293 1.7148e+19 1.14034e-07 -1.74535 188.597 0.371365 
0.075 0.02475 0.385966 6.78775e+19 4.51386e-07 47.3281 184.45 -0.360202 
0.081 0.02475 0.279966 1.32897e+20 8.83765e-07 87.0539 174.377 -0.143177 
0.087 0.02475 0.21627 2.46503e+20 1.63924e-06 108.378 154.819 -0.857306 
0.093 0.02475 0.226982 2.88658e+20 1.91958e-06 132.943 140.494 -1.12881 
0.099 0.02475 0.202763 2.2221e+20 1.47769e-06 147.694 126.642 0.395405 
0.105 0.02475 0.161238 2.21495e+20 1.47294e-06 158.666 114.04 -0.931094 
0.111 0.02475 0.145837 1.97917e+20 1.31615e-06 165.958 102.441 -0.0196803 
0.117 0.02475 0.116893 1.68622e+20 1.12134e-06 172.431 93.2318 -0.68083 
0.003 0.02625 0 0 0 0 0 0 
0.009 0.02625 0 0 0 0 0 0 
0.015 0.02625 0 0 0 0 0 0 
0.021 0.02625 0 0 0 0 0 0 
0.027 0.02625 0 0 0 0 0 0 
0.033 0.02625 0 0 0 0 0 0 
0.039 0.02625 0 0 0 0 0 0 
0.045 0.02625 0 0 0 0 0 0 
0.051 0.02625 0 0 0 0 0 0 
0.057 0.02625 0 0 0 0 0 0 
0.063 0.02625 0.137367 2.02102e+18 1.34398e-08 -44.4617 127.308 -2.80863 
0.069 0.02625 0.317506 2.49259e+19 1.65757e-07 -4.69955 170.493 -0.638584 
0.075 0.02625 0.321005 4.78307e+19 3.18074e-07 42.7603 182.515 0.170758 
0.081 0.02625 0.283858 1.01724e+20 6.76467e-07 76.2989 172.727 -1.67718 
0.087 0.02625 0.241342 2.09512e+20 1.39325e-06 107.549 157.474 -0.839813 
0.093 0.02625 0.244729 2.51953e+20 1.67549e-06 127.911 143.244 0.295211 
0.099 0.02625 0.189462 2.13554e+20 1.42013e-06 145.123 128.781 0.334822 
0.105 0.02625 0.172285 2.1827e+20 1.45149e-06 154.87 117.53 -0.0453973 
0.111 0.02625 0.132657 1.96038e+20 1.30366e-06 163.174 106.858 -0.771535 
0.117 0.02625 0.123457 1.66397e+20 1.10654e-06 171.793 97.8205 0.559019 
0.003 0.02775 0 0 0 0 0 0 
0.009 0.02775 0 0 0 0 0 0 
0.015 0.02775 0 0 0 0 0 0 
0.021 0.02775 0 0 0 0 0 0 
0.027 0.02775 0 0 0 0 0 0 
0.033 0.02775 0 0 0 0 0 0 
0.039 0.02775 0 0 0 0 0 0 
0.045 0.02775 0 0 0 0 0 0 
0.051 0.02775 0 0 0 0 0 0 
0.057 0.02775 0 0 0 0 0 0 
0.063 0.02775 0.0880539 1.91177e+18 1.27133e-08 -43.4453 166.508 3.28323 
0.069 0.02775 0.246831 2.42158e+19 1.61035e-07 -7.78926 167.66 -0.0944765 
0.075 0.02775 0.39684 4.39707e+19 2.92405e-07 39.0874 178.826 1.0168 
0.081 0.02775 0.36051 1.03873e+20 6.90755e-07 72.8682 167.733 1.56358 
0.087 0.02775 0.250711 1.65687e+20 1.10182e-06 104.852 162.718 -0.94144 
0.093 0.02775 0.215366 2.19216e+20 1.45779e-06 123.877 147.432 -0.0850731 
0.099 0.02775 0.18868 2.0902e+20 1.38999e-06 140.2 132.51 -0.650444 
0.105 0.02775 0.164015 1.73971e+20 1.15691e-06 150.344 119.993 0.866881 
0.111 0.02775 0.150415 1.82256e+20 1.212e-06 160.562 111.946 0.907936 
0.117 0.02775 0.114011 1.48481e+20 9.87398e-07 167.408 102.264 -0.0591796 
0.003 0.02925 0 0 0 0 0 0 
0.009 0.02925 0 0 0 0 0 0 
0.015 0.02925 0 0 0 0 0 0 
0.021 0.02925 0 0 0 0 0 0 
0.027 0.02925 0 0 0 0 0 0 
0.033 0.02925 0 0 0 0 0 0 
0.039 0.02925 0 0 0 0 0 0 
0.045 0.02925 0 0 0 0 0 0 
0.051 0.02925 0 0 0 0 0 0 
0.057 0.02925 0 0 0 0 0 0 
0.063 0.02925 0.309491 1.81373e+18 1.20613e-08 -37.7813 161.928 -10.6535 
0.069 0.02925 0.305384 1.81373e+19 1.20613e-07 -8.02613 176.852 0.823369 
0.075 0.02925 0.374243 2.96243e+19 1.97001e-07 32.2104 179.495 -1.59134 
0.081 0.02925 0.29367 8.82683e+19 5.86984e-07 70.4094 176.081 1.63091 
0.087 0.02925 0.251883 1.4268e+20 9.48823e-07 97.6638 161.866 -0.659602 
0.093 0.02925 0.207003 2.04952e+20 1.36293e-06 120.429 150.809 -0.637751 
0.099 0.02925 0.184107 2.04952e+20 1.36293e-06 137.687 136.444 0.070661 
0.105 0.02925 0.159354 1.77141e+20 1.17799e-06 148.394 125.026 0.27762 
0.111 0.02925 0.138576 1.75327e+20 1.16593e-06 157.139 113.368 -0.0187744 
0.117 0.02925 0.134161 1.44494e+20 9.60885e-07 165.451 104.562 0.190303 
0.0015 0.000375 0 0 0 0 0 0 
0.0015 0.001125 0 0 0 0 0 0 
0.0015 0.001875 0 0 0 0 0 0 
0.0015 0.002625 0 0 0 0 0 0 
0.0045 0.002625 0 0 0 0 0 0 
0.0075 0.002625 0 0 0 0 0 0 
0.0105 0.002625 0 0 0 0 0 0 
0.0135 0.002625 0 0 0 0 0 0 
0.0165 0.002625 0 0 0 0 0 0 
0.0195 0.002625 0 0 0 0 0 0 
0.0225 0.002625 0 0 0 0 0 0 
0.0645 0.002625 3.77424 5.83669e+23 0.0038814 4.22924 -7.10433 0.646314 
0.0675 0.002625 2.40433 1.54495e+22 0.000102739 47.2304 111.512 -6.48466 
0.0705 0.002625 1.3002 2.20695e+22 0.000146762 126.502 97.5793 -1.1847 
0.0645 0.003375 4.2202 6.02352e+23 0.00400564 -1.97953 0.788515 -2.42351 
0.0645 0.004125 4.09049 5.79774e+23 0.0038555 -3.99612 2.2351 -1.49187 
0.0255 0.007125 0 0 0 0 0 0 
0.0285 0.007125 0 0 0 0 0 0 
0.0315 0.007125 0 0 0 0 0 0 
0.0345 0.007125 0 0 0 0 0 0 
0.0375 0.007125 0 0 0 0 0 0 
0.0405 0.007125 0 0 0 0 0 0 
0.0435 0.007125 0 0 0 0 0 0 
0.0465 0.007125 0 0 0 0 0 0 
0.0495 0.007125 0 0 0 0 0 0 
0.0525 0.007125 0 0 0 0 0 0 
0.0555 0.007125 0 0 0 0 0 0 
0.0585 0.007125 0 0 0 0 0 0 
0.0645 0.006375 3.92431 5.76603e+23 0.00383441 -0.903244 -6.02944 4.96911 
0.0615 0.007125 0 0 0 0 0 0 
0.0645 0.007125 0 0 0 0 0 0 
0.0675 0.000375 3.06245 2.86149e+23 0.00190289 99.8583 5.06922 0.26645 
0.0705 0.000375 1.92503 1.06575e+23 0.000708723 144.135 4.05803 6.70126 
0.00375 0.0001875 0 0 0 0 0 0 
0.00525 0.0001875 3.89042 1.29474e+24 0.00861004 21.4009 0.792559 0.177831 
0.00375 0.0005625 0 0 0 0 0 0 
0.00375 0.0009375 0 0 0 0 0 0 
0.00375 0.0013125 0 0 0 0 0 0 
0.00675 0.0001875 3.94901 1.27362e+24 0.00846955 27.3452 -0.94452 -4.1523 
0.00825 0.0001875 4.02315 1.22231e+24 0.00812836 32.9192 -4.32946 -3.26198 
0.00975 0.0001875 3.96065 1.18458e+24 0.00787749 27.9246 -5.73138 -1.56741 
0.01125 0.0001875 3.86073 1.17704e+24 0.00782731 35.2852 -1.17519 -3.00243 
0.01275 0.0001875 3.91659 1.0699e+24 0.00711482 27.2746 -1.05655 -3.94517 
0.01425 0.0001875 3.82812 9.56722e+23 0.0063622 35.5299 -0.110858 -2.03718 
0.01575 0.0001875 3.85465 9.77848e+23 0.00650269 34.1948 4.30194 1.20865 
0.01725 0.0001875 4.02947 9.71812e+23 0.00646255 38.2472 -3.55834 -4.86247 
0.01875 0.0001875 3.94182 8.99379e+23 0.00598087 35.6774 -2.32856 -6.27897 
0.02025 0.0001875 3.54924 8.39018e+23 0.00557947 45.9201 2.72118 2.31689 
0.02175 0.0001875 3.86099 8.01292e+23 0.00532859 46.52 0.58311 3.08534 
0.02325 0.0001875 3.95812 6.53408e+23 0.00434516 49.202 -0.0833241 2.33641 
0.02475 0.0001875 3.69828 6.63971e+23 0.00441541 51.5774 -3.11648 6.17291 
0.02625 0.0001875 3.62976 6.06628e+23 0.00403408 43.4177 2.25263 -0.0616392 
0.02775 0.0001875 3.88782 6.15682e+23 0.00409429 35.9147 3.16654 -7.59149 
0.02925 0.0001875 3.87968 6.36808e+23 0.00423478 26.5548 -5.76474 -7.42828 
0.03075 0.0001875 3.87481 6.29263e+23 0.0041846 21.3237 -5.56556 -7.57822 
0.03225 0.0001875 4.08914 5.64375e+23 0.0037531 14.5389 -5.79544 -2.91064 
0.03375 0.0001875 3.86611 6.27754e+23 0.00417457 12.5754 2.0234 1.39422 
0.03525 0.0001875 3.88669 5.55321e+23 0.00369289 20.4674 7.00065 -6.68047 
0.03375 0.0005625 3.85551 5.74938e+23 0.00382334 11.2544 1.26182 1.16987 
0.03525 0.0005625 4.12517 5.86005e+23 0.00389693 16.8314 -4.93877 -0.848507 
0.03675 0.0001875 4.04216 5.82484e+23 0.00387352 3.72464 -4.28039 0.907306 
0.03825 0.0001875 3.96058 5.43249e+23 0.00361261 7.03121 8.98198 1.32273 
0.03825 0.0005625 3.96878 5.92544e+23 0.00394042 1.50689 -1.76928 2.74196 
0.03975 0.0001875 4.03451 5.38722e+23 0.0035825 6.15872 5.94751 2.40992 
0.04125 0.0001875 3.89992 6.56426e+23 0.00436523 12.8982 -1.2244 1.68179 
0.03975 0.0005625 4.11992 6.01095e+23 0.00399728 8.47859 0.688669 0.42547 
0.04275 0.0001875 3.79349 5.70411e+23 0.00379324 8.88167 3.46896 4.49368 
0.04425 0.0001875 3.89957 5.40231e+23 0.00359253 9.55867 3.42044 3.00982 
0.04275 0.0005625 4.16159 5.73932e+23 0.00381665 13.1775 3.67068 2.06153 
0.04425 0.0005625 4.0338 5.77956e+23 0.00384341 11.1928 3.8398 -1.59971 
0.04575 0.0001875 4.23697 5.99083e+23 0.0039839 -3.42514 2.53843 3.981 
0.04725 0.0001875 4.32215 6.08137e+23 0.00404411 9.8732 -5.28959 2.53607 
0.04575 0.0005625 3.98493 5.59345e+23 0.00371965 8.1219 -3.72055 -1.25896 
0.04875 0.0001875 4.28068 6.02101e+23 0.00400397 4.78065 -4.95444 4.72856 
0.05025 0.0001875 3.78564 6.187e+23 0.00411436 7.96399 -1.29808 -4.37604 
0.04875 0.0005625 3.94408 6.02604e+23 0.00400732 6.71243 -0.150876 -0.365943 
0.05175 0.0001875 3.80212 6.11155e+23 0.00406418 13.5728 -3.52805 -0.309584 
0.05325 0.0001875 3.88666 5.5683e+23 0.00370292 12.0575 0.398166 0.829185 
0.05175 0.0005625 3.99884 6.10652e+23 0.00406084 8.22212 -1.1645 -1.85138 
0.05475 0.0001875 4.15737 5.8852e+23 0.00391366 9.55073 -3.92726 9.57028 
0.05625 0.0001875 4.04314 5.74938e+23 0.00382334 6.37833 1.37377 -6.01757 
0.05475 0.0005625 4.0301 5.69405e+23 0.00378655 9.13297 4.2311 0.00792318 
0.05625 0.0005625 4.02853 5.93047e+23 0.00394376 15.6627 -3.29057 -2.00799 
0.05775 0.0001875 3.72558 6.14173e+23 0.00408425 11.7775 -4.18704 4.72215 
0.05925 0.0001875 4.31168 5.61357e+23 0.00373303 11.9786 -1.05703 -0.112951 
0.05775 0.0005625 3.96466 5.7695e+23 0.00383672 14.6468 -1.40238 -0.622703 
0.06075 0.0001875 4.04437 5.74938e+23 0.00382334 20.7212 -5.3321 4.15016 
0.06225 0.0001875 4.04393 5.49285e+23 0.00365275 35.317 0.176753 -8.6025 
0.06075 0.0005625 3.78552 6.1367e+23 0.00408091 22.6019 -5.23151 4.78734 
0.06375 0.0001875 3.56291 4.61762e+23 0.00307071 57.8507 -3.64619 -10.9407 
0.06525 0.0001875 3.35556 4.05928e+23 0.00269942 86.3006 -3.80099 1.23268 
0.06375 0.0005625 3.72161 4.72828e+23 0.0031443 63.7627 -6.32629 0.92491 
0.06525 0.0005625 3.47333 3.93855e+23 0.00261914 82.9272 -2.80406 3.17989 
0.00375 0.0016875 0 0 0 0 0 0 
0.00375 0.0020625 0 0 0 0 0 0 
0.06525 0.0020625 3.82538 3.29892e+23 0.00219378 19.1759 -1.91506 3.01895 
0.06825 0.0016875 3.19631 1.89634e+23 0.00126107 83.1695 15.2101 4.0191 
0.06675 0.0020625 3.8598 2.67243e+23 0.00177717 28.8082 -1.36497 -1.2791 
0.06825 0.0020625 3.7758 1.08952e+23 0.000724534 63.0806 35.6649 1.23178 
0.02475 0.0065625 0 0 0 0 0 0 
0.02625 0.0065625 0 0 0 0 0 0 
0.02775 0.0065625 0 0 0 0 0 0 
0.02925 0.0065625 0 0 0 0 0 0 
0.03075 0.0065625 0 0 0 0 0 0 
0.03225 0.0065625 0 0 0 0 0 0 
0.03375 0.0065625 0 0 0 0 0 0 
0.03525 0.0065625 0 0 0 0 0 0 
0.03675 0.0065625 0 0 0 0 0 0 
0.03825 0.0065625 0 0 0 0 0 0 
0.03975 0.0065625 0 0 0 0 0 0 
0.04125 0.0065625 0 0 0 0 0 0 
0.04275 0.0065625 0 0 0 0 0 0 
0.04425 0.0065625 0 0 0 0 0 0 
0.04575 0.0065625 0 0 0 0 0 0 
0.04725 0.0065625 0 0 0 0 0 0 
0.04875 0.0065625 0 0 0 0 0 0 
0.05025 0.0065625 0 0 0 0 0 0 
0.05175 0.0065625 0 0 0 0 0 0 
0.05325 0.0065625 0 0 0 0 0 0 
0.05475 0.0065625 0 0 0 0 0 0 
0.05625 0.0065625 0 0 0 0 0 0 
0.05775 0.0065625 0 0 0 0 0 0 
0.05925 0.0065625 0 0 0 0 0 0 
0.06075 0.0065625 0 0 0 0 0 0 
0.06225 0.0065625 0 0 0 0 0 0 
0.0735 0.001875 0.96176 2.3239e+22 0.000154539 169.192 57.1396 -2.58042 
0.0765 0.001875 0.766854 1.18081e+22 7.8524e-05 175.174 52.1201 1.44647 
0.0735 0.002625 0.898579 1.50364e+22 9.99917e-05 161.912 75.6827 -1.69337 
0.0765 0.002625 0.653481 9.91645e+21 6.59444e-05 171.42 64.1894 1.16191 
0.06375 0.0046875 3.99065 6.24736e+23 0.0041545 2.66453 1.01325 8.78293 
0.06525 0.0046875 0 0 0 0 0 0 
0.06375 0.0050625 4.07598 5.8349e+23 0.00388021 -0.0606772 -8.33474 -4.67313 
0.06525 0.0050625 0 0 0 0 0 0 
0.06375 0.0054375 4.06048 5.72909e+23 0.00380984 -2.66411 8.7519 -0.689359 
0.06525 0.0054375 0 0 0 0 0 0 
0.06375 0.0058125 3.82008 5.82678e+23 0.00387481 -0.175623 2.52498 -0.230594 
0.06525 0.0058125 0 0 0 0 0 0 
0.06675 0.0009375 3.13657 3.10255e+23 0.0020632 88.7875 -1.72421 -3.09994 
0.06825 0.0009375 2.91016 2.21223e+23 0.00147113 103.635 14.5746 0.741416 
0.06675 0.0013125 3.41894 2.9232e+23 0.00194393 76.1964 0.10798 1.12534 
0.06825 0.0013125 3.02824 2.14928e+23 0.00142927 98.5879 7.61593 -6.01602 
0.06975 0.0009375 2.01657 1.2374e+23 0.000822871 140.934 18.1465 -0.495594 
0.07125 0.0009375 1.61319 7.21314e+22 0.000479674 153.172 26.494 1.86256 
0.06975 0.0013125 2.08988 1.14686e+23 0.000762661 138.368 28.9174 4.45751 
0.07125 0.0013125 1.46874 6.57504e+22 0.00043724 155.028 36.338 -4.95822 
0.004875 0.00046875 4.14438 1.10823e+24 0.00736971 22.3206 5.67504 8.10477 
0.005625 0.00046875 4.01041 1.32311e+24 0.0087987 18.7925 -0.572141 1.09819 
0.004875 0.00065625 3.96575 1.49005e+24 0.00990886 14.8289 -9.97319 -7.55817 
0.005625 0.00065625 3.99391 1.22791e+24 0.00816563 24.4552 -5.12621 0.309233 
0.004875 0.00084375 3.97427 1.28368e+24 0.00853645 16.9521 -1.74918 1.82699 
0.004875 0.00103125 3.92202 1.28404e+24 0.00853888 7.1901 3.55214 3.04641 
0.004875 0.00121875 3.93144 1.41802e+24 0.00942983 19.0315 5.27291 4.45547 
0.004875 0.00140625 3.95682 1.32311e+24 0.0087987 19.3635 -5.54226 4.12978 
0.006375 0.00046875 4.14253 1.30138e+24 0.0086542 20.5352 -0.805804 4.80572 
0.007125 0.00046875 3.80605 1.25792e+24 0.00836519 24.4141 4.06565 -2.82706 
0.006375 0.00065625 4.05436 1.21584e+24 0.00808535 18.084 0.315249 0.0699602 
0.007125 0.00065625 3.98794 1.20894e+24 0.00803948 29.0683 -1.08375 5.65916 
0.007875 0.00046875 3.86408 1.19515e+24 0.00794773 29.3394 -1.94185 1.21698 
0.008625 0.00046875 4.2052 1.26275e+24 0.0083973 25.4164 1.73053 2.79203 
0.007875 0.00065625 3.88528 1.23481e+24 0.00821151 22.4947 -1.95895 6.58536 
0.008625 0.00065625 3.84126 1.12444e+24 0.00747752 27.7641 4.00606 -1.78822 
0.009375 0.00046875 3.97399 1.12996e+24 0.00751422 32.5579 -3.68854 -0.903726 
0.010125 0.00046875 3.8991 1.1203e+24 0.00744999 32.1951 8.48081 4.87638 
0.009375 0.00065625 3.80662 1.11582e+24 0.00742018 27.4785 -2.09975 4.31282 
0.010125 0.00065625 3.94825 1.24171e+24 0.00825738 31.3038 0.952741 1.1878 
0.010875 0.00046875 3.84891 1.14927e+24 0.00764267 35.4146 -4.35784 4.08594 
0.011625 0.00046875 3.65258 1.01165e+24 0.00672747 28.1958 3.52371 1.3644 
0.010875 0.00065625 4.00366 1.18825e+24 0.00790186 29.2574 -2.47046 1.01517 
0.011625 0.00065625 4.24664 1.06063e+24 0.00705318 32.6 0.0747463 -2.54297 
0.006375 0.00084375 4.02484 1.2488e+24 0.00830453 24.5066 -0.131099 -0.246898 
0.007125 0.00084375 3.95254 1.25953e+24 0.00837589 21.8186 4.25051 -0.278455 
0.007125 0.00103125 4.09609 1.27746e+24 0.0084951 20.6312 -4.64155 0.0265578 
0.007875 0.00084375 3.82669 1.25685e+24 0.00835805 24.3032 2.65891 -4.38862 
0.008625 0.00084375 3.94753 1.22197e+24 0.00812613 27.1211 1.45468 4.39042 
0.008625 0.00103125 3.9928 1.18527e+24 0.00788205 22.6652 2.0971 1.14195 
0.007125 0.00121875 3.99175 1.22858e+24 0.00817005 17.7443 3.98662 2.03958 
0.009375 0.00084375 4.06488 1.07711e+24 0.00716277 22.5575 -0.0451023 -4.08763 
0.010125 0.00084375 3.89884 1.0704e+24 0.00711817 26.0842 0.744972 1.56688 
0.010125 0.00103125 4.00183 1.1743e+24 0.00780907 20.527 -3.54732 0.460884 
0.010875 0.00084375 3.78625 1.12942e+24 0.00751065 25.1351 -2.63276 -5.77224 
0.011625 0.00084375 4.02704 1.13881e+24 0.00757309 26.5945 6.12086 -1.32004 
0.010875 0.00103125 3.81151 1.19515e+24 0.00794773 27.107 -2.24516 -0.355202 
0.011625 0.00103125 3.80773 1.10406e+24 0.00734198 21.0705 -0.564956 1.61592 
0.010125 0.00121875 3.8599 1.19608e+24 0.00795391 25.0233 0.485639 -2.17986 
0.010875 0.00121875 3.95497 1.07071e+24 0.00712023 22.745 0.284713 2.43906 
0.011625 0.00121875 3.96609 1.05957e+24 0.00704612 25.8682 -3.84686 -3.71149 
0.012375 0.00046875 3.82131 1.14444e+24 0.00761055 37.9708 -3.76621 1.34496 
0.013125 0.00046875 3.8816 1.02855e+24 0.00683987 29.8359 8.97752 2.08294 
0.012375 0.00065625 4.03187 1.0865e+24 0.00722521 28.5604 -1.23663 -0.932807 
0.013125 0.00065625 3.79928 1.03304e+24 0.00686968 32.0134 -3.28698 1.59592 
0.013875 0.00046875 3.94154 9.31974e+23 0.00619762 33.7488 -5.09299 4.11278 
0.014625 0.00046875 3.7808 1.01648e+24 0.00675959 34.7133 0.550779 0.358859 
0.013875 0.00065625 4.01601 9.57153e+23 0.00636507 36.8676 1.64093 1.33787 
0.014625 0.00065625 4.02834 9.10589e+23 0.00605541 28.8574 1.51845 2.96764 
0.015375 0.00046875 3.79609 9.87506e+23 0.00656691 34.9565 0.299468 5.63572 
0.016125 0.00046875 3.83301 8.45054e+23 0.00561961 42.1341 2.56936 3.74322 
0.015375 0.00065625 4.11005 9.51979e+23 0.00633066 31.9534 3.65025 1.77764 
0.016125 0.00065625 3.83813 9.27835e+23 0.0061701 29.7202 2.51673 1.33755 