ITEM: TIMESTEP
500000
ITEM: NUMBER OF CELLS
43024
ITEM: BOX BOUNDS oo ao pp
0 0.2
0 0.03
-0.1 0.1
ITEM: CELLS xc yc f_out[1] f_out[2] f_out[3] f_out[4] f_out[5] f_out[6] 
0.005 0.01575 0 0 0 0 0 0 
0.005 0.01875 0 0 0 0 0 0 
0.005 0.02175 0 0 0 0 0 0 
0.005 0.02475 0 0 0 0 0 0 
0.005 0.02775 0 0 0 0 0 0 
0.015 0.02475 0 0 0 0 0 0 
0.015 0.02775 0 0 0 0 0 0 
0.005 0.01425 0 0 0 0 0 0 
0.005 0.01725 0 0 0 0 0 0 
0.005 0.02025 0 0 0 0 0 0 
0.005 0.02325 0 0 0 0 0 0 
0.005 0.02625 0 0 0 0 0 0 
0.005 0.02925 0 0 0 0 0 0 
0.015 0.02325 0 0 0 0 0 0 
0.015 0.02625 0 0 0 0 0 0 
0.015 0.02925 0 0 0 0 0 0 
0.025 0.02325 0 0 0 0 0 0 
0.025 0.02625 0 0 0 0 0 0 
0.025 0.02925 0 0 0 0 0 0 
0.0025 0.003375 0 0 0 0 0 0 
0.0025 0.004125 0 0 0 0 0 0 
0.0025 0.006375 0 0 0 0 0 0 
0.0025 0.007125 0 0 0 0 0 0 
0.0025 0.009375 0 0 0 0 0 0 
0.0025 0.010125 0 0 0 0 0 0 
0.0025 0.012375 0 0 0 0 0 0 
0.0025 0.013125 0 0 0 0 0 0 
0.0075 0.013125 0 0 0 0 0 0 
0.0125 0.013125 0 0 0 0 0 0 
0.0125 0.015375 0 0 0 0 0 0 
0.0125 0.016125 0 0 0 0 0 0 
0.0125 0.018375 0 0 0 0 0 0 
0.0125 0.019125 0 0 0 0 0 0 
0.0125 0.021375 0 0 0 0 0 0 
0.0125 0.022125 0 0 0 0 0 0 
0.0175 0.022125 0 0 0 0 0 0 
0.0025 0.002625 0 0 0 0 0 0 
0.0025 0.004875 0 0 0 0 0 0 
0.0025 0.005625 0 0 0 0 0 0 
0.0025 0.007875 0 0 0 0 0 0 
0.0025 0.008625 0 0 0 0 0 0 
0.0025 0.010875 0 0 0 0 0 0 
0.0025 0.011625 0 0 0 0 0 0 
0.0125 0.013875 0 0 0 0 0 0 
0.0125 0.014625 0 0 0 0 0 0 
0.0125 0.016875 0 0 0 0 0 0 
0.0125 0.017625 0 0 0 0 0 0 
0.0125 0.019875 0 0 0 0 0 0 
0.0125 0.020625 0 0 0 0 0 0 
0.00125 0.0001875 0 0 0 0 0 0 
0.00125 0.0005625 0 0 0 0 0 0 
0.00625 0.0001875 1.77046 7.54211e+21 5.0155e-05 53.4313 -0.918941 -1.91906 
0.00875 0.0001875 2.00727 4.80583e+21 3.19588e-05 22.99 3.76775 1.27227 
0.00125 0.0009375 0 0 0 0 0 0 
0.00125 0.0013125 0 0 0 0 0 0 
0.01125 0.0031875 0 0 0 0 0 0 
0.01125 0.0035625 0 0 0 0 0 0 
0.01125 0.0039375 0 0 0 0 0 0 
0.01125 0.0043125 0 0 0 0 0 0 
0.01125 0.0061875 0 0 0 0 0 0 
0.01125 0.0065625 0 0 0 0 0 0 
0.01125 0.0069375 0 0 0 0 0 0 
0.01125 0.0073125 0 0 0 0 0 0 
0.01125 0.0091875 0 0 0 0 0 0 
0.01625 0.0129375 0 0 0 0 0 0 
0.01625 0.0133125 0 0 0 0 0 0 
0.01625 0.0151875 0 0 0 0 0 0 
0.01625 0.0155625 0 0 0 0 0 0 
0.01625 0.0159375 0 0 0 0 0 0 
0.01625 0.0163125 0 0 0 0 0 0 
0.01625 0.0181875 0 0 0 0 0 0 
0.01625 0.0185625 0 0 0 0 0 0 
0.01625 0.0189375 0 0 0 0 0 0 
0.01625 0.0193125 0 0 0 0 0 0 
0.01625 0.0211875 0 0 0 0 0 0 
0.01625 0.0215625 0 0 0 0 0 0 
0.00125 0.0016875 0 0 0 0 0 0 
0.00125 0.0020625 0 0 0 0 0 0 
0.00375 0.0020625 0 0 0 0 0 0 
0.01125 0.0024375 0 0 0 0 0 0 
0.01125 0.0028125 0 0 0 0 0 0 
0.01125 0.0046875 0 0 0 0 0 0 
0.01125 0.0050625 0 0 0 0 0 0 
0.01125 0.0054375 0 0 0 0 0 0 
0.01125 0.0058125 0 0 0 0 0 0 
0.01125 0.0076875 0 0 0 0 0 0 
0.01125 0.0080625 0 0 0 0 0 0 
0.01125 0.0084375 0 0 0 0 0 0 
0.01125 0.0088125 0 0 0 0 0 0 
0.01625 0.0136875 0 0 0 0 0 0 
0.01625 0.0140625 0 0 0 0 0 0 
0.01625 0.0144375 0 0 0 0 0 0 
0.01625 0.0148125 0 0 0 0 0 0 
0.01625 0.0166875 0 0 0 0 0 0 
0.01625 0.0170625 0 0 0 0 0 0 
0.01625 0.0174375 0 0 0 0 0 0 
0.01625 0.0178125 0 0 0 0 0 0 
0.01625 0.0196875 0 0 0 0 0 0 
0.01625 0.0200625 0 0 0 0 0 0 
0.01625 0.0204375 0 0 0 0 0 0 
0.01625 0.0208125 0 0 0 0 0 0 
0.01125 0.0016875 0 0 0 0 0 0 
0.01125 0.0020625 0 0 0 0 0 0 
0.003125 0.00046875 1.90415 1.28029e+22 8.51392e-05 26.2663 -1.67782 6.69854 
0.004375 0.00046875 1.77753 1.21833e+22 8.10187e-05 39.6782 -0.912691 2.08162 
0.003125 0.00065625 1.98276 1.27303e+22 8.46563e-05 30.8427 -2.03406 -4.27057 
0.005625 0.00046875 1.77585 8.9962e+21 5.98247e-05 50.6556 1.55141 1.86887 
0.006875 0.00046875 1.76418 6.09887e+21 4.05575e-05 56.9455 5.15601 -6.26604 
0.006875 0.00065625 1.7341 6.08439e+21 4.04612e-05 57.3192 4.83306 0.793215 
0.003125 0.00084375 1.90422 1.31312e+22 8.73222e-05 29.8575 1.74482 0.517127 
0.003125 0.00103125 1.94844 1.42383e+22 9.46844e-05 22.8629 -3.68166 -0.340213 
0.003125 0.00121875 1.92938 1.36851e+22 9.10058e-05 23.8451 -6.00103 -4.39473 
0.006875 0.00084375 1.66542 5.74637e+21 3.82133e-05 49.5061 11.2535 -2.96499 
0.006875 0.00103125 1.69977 5.95269e+21 3.95854e-05 51.4339 11.7477 0.701467 
0.008125 0.00084375 1.86999 4.86107e+21 3.23261e-05 27.9196 8.23142 1.10432 
0.009375 0.00084375 2.19933 4.9398e+21 3.28497e-05 14.7226 12.233 1.79254 
0.008125 0.00103125 2.03471 4.33282e+21 2.88133e-05 30.005 13.6341 -3.16501 
0.009375 0.00103125 1.87711 4.93863e+21 3.28419e-05 8.94622 9.52316 1.55583 
0.008125 0.00121875 1.96331 4.22898e+21 2.81227e-05 23.3985 13.0596 -0.35017 
0.009375 0.00121875 2.06886 4.71459e+21 3.1352e-05 0.296282 10.7368 2.20251 
0.008125 0.00140625 1.94298 4.1142e+21 2.73595e-05 20.3264 15.8305 -3.90091 
0.009375 0.00140625 2.04557 4.96043e+21 3.29869e-05 4.08581 12.6684 -0.524016 
0.009375 0.00309375 1.92066 3.43664e+21 2.28536e-05 0.269183 19.7506 -3.05233 
0.005625 0.00384375 0 0 0 0 0 0 
0.005625 0.00403125 0 0 0 0 0 0 
0.005625 0.00421875 0 0 0 0 0 0 
0.005625 0.00440625 0 0 0 0 0 0 
0.005625 0.00609375 0 0 0 0 0 0 
0.005625 0.00628125 0 0 0 0 0 0 
0.005625 0.00646875 0 0 0 0 0 0 
0.005625 0.00665625 0 0 0 0 0 0 
0.005625 0.00684375 0 0 0 0 0 0 
0.005625 0.00703125 0 0 0 0 0 0 
0.005625 0.00721875 0 0 0 0 0 0 
0.005625 0.00740625 0 0 0 0 0 0 
0.005625 0.00909375 0 0 0 0 0 0 
0.005625 0.00928125 0 0 0 0 0 0 
0.005625 0.00946875 0 0 0 0 0 0 
0.005625 0.00965625 0 0 0 0 0 0 
0.005625 0.00984375 0 0 0 0 0 0 
0.005625 0.0100312 0 0 0 0 0 0 
0.005625 0.0102187 0 0 0 0 0 0 
0.005625 0.0104062 0 0 0 0 0 0 
0.005625 0.0120938 0 0 0 0 0 0 
0.005625 0.0122813 0 0 0 0 0 0 
0.005625 0.0124688 0 0 0 0 0 0 
0.005625 0.0126563 0 0 0 0 0 0 
0.013125 0.00309375 1.92253 2.46931e+21 1.64209e-05 1.43851 0.387242 -0.130694 
0.013125 0.00328125 1.9873 2.36763e+21 1.57447e-05 -0.878285 -1.25363 -0.799989 
0.010625 0.00946875 1.91151 2.62648e+21 1.74661e-05 0.907962 -2.55144 1.6132 
0.011875 0.00946875 2.04959 2.66752e+21 1.7739e-05 3.11394 -3.18056 1.77265 
0.018125 0.0128438 0 0 0 0 0 0 
0.018125 0.0130313 0 0 0 0 0 0 
0.018125 0.0132188 0 0 0 0 0 0 
0.018125 0.0134063 0 0 0 0 0 0 
0.018125 0.0150937 0 0 0 0 0 0 
0.018125 0.0152812 0 0 0 0 0 0 
0.018125 0.0154687 0 0 0 0 0 0 
0.018125 0.0156563 0 0 0 0 0 0 
0.018125 0.0158438 0 0 0 0 0 0 
0.018125 0.0160313 0 0 0 0 0 0 
0.018125 0.0162188 0 0 0 0 0 0 
0.018125 0.0164062 0 0 0 0 0 0 
0.018125 0.0180937 0 0 0 0 0 0 
0.018125 0.0182812 0 0 0 0 0 0 
0.018125 0.0184687 0 0 0 0 0 0 
0.018125 0.0186562 0 0 0 0 0 0 
0.018125 0.0188437 0 0 0 0 0 0 
0.018125 0.0190312 0 0 0 0 0 0 
0.018125 0.0192187 0 0 0 0 0 0 
0.018125 0.0194062 0 0 0 0 0 0 
0.018125 0.0210937 0 0 0 0 0 0 
0.018125 0.0212812 0 0 0 0 0 0 
0.018125 0.0214687 0 0 0 0 0 0 
0.018125 0.0216562 0 0 0 0 0 0 
0.019375 0.0216562 1.96085 2.38021e+21 1.58284e-05 2.85849 -1.30807 -0.191998 
0.003125 0.00159375 1.96701 1.42371e+22 9.46765e-05 14.5421 -0.14157 0.278032 
0.003125 0.00178125 0 0 0 0 0 0 
0.004375 0.00178125 0 0 0 0 0 0 
0.005625 0.00178125 0 0 0 0 0 0 
0.006875 0.00178125 1.95498 3.59265e+21 2.38911e-05 15.3223 20.2474 2.78627 
0.008125 0.00159375 2.0219 4.03922e+21 2.68608e-05 19.8779 14.9467 -0.486728 
0.009375 0.00159375 2.00263 4.60901e+21 3.06499e-05 6.13282 11.3249 1.32849 
0.009375 0.00178125 1.93766 4.45987e+21 2.96581e-05 -0.626497 10.9972 3.169 
0.009375 0.00196875 2.01166 4.10145e+21 2.72747e-05 2.70634 13.4057 -1.10871 
0.009375 0.00215625 1.88192 4.14856e+21 2.75879e-05 1.48572 16.6755 0.339357 
0.005625 0.00234375 0 0 0 0 0 0 
0.005625 0.00253125 0 0 0 0 0 0 
0.009375 0.00234375 2.0093 3.95132e+21 2.62763e-05 -1.37178 17.0664 -1.28611 
0.009375 0.00253125 1.95305 4.07136e+21 2.70745e-05 2.39688 14.5281 -3.09873 
0.009375 0.00271875 1.91151 3.89865e+21 2.5926e-05 -1.52945 14.1299 0.0938383 
0.009375 0.00290625 1.9686 3.53853e+21 2.35312e-05 -1.38564 8.76515 -2.1107 
0.005625 0.00459375 0 0 0 0 0 0 
0.005625 0.00478125 0 0 0 0 0 0 
0.005625 0.00496875 0 0 0 0 0 0 
0.005625 0.00515625 0 0 0 0 0 0 
0.005625 0.00534375 0 0 0 0 0 0 
0.005625 0.00553125 0 0 0 0 0 0 
0.005625 0.00571875 0 0 0 0 0 0 
0.005625 0.00590625 0 0 0 0 0 0 
0.005625 0.00759375 0 0 0 0 0 0 
0.005625 0.00778125 0 0 0 0 0 0 
0.005625 0.00796875 0 0 0 0 0 0 
0.005625 0.00815625 0 0 0 0 0 0 
0.005625 0.00834375 0 0 0 0 0 0 
0.005625 0.00853125 0 0 0 0 0 0 
0.005625 0.00871875 0 0 0 0 0 0 
0.005625 0.00890625 0 0 0 0 0 0 
0.005625 0.0105937 0 0 0 0 0 0 
0.005625 0.0107812 0 0 0 0 0 0 
0.005625 0.0109687 0 0 0 0 0 0 
0.005625 0.0111562 0 0 0 0 0 0 
0.005625 0.0113437 0 0 0 0 0 0 
0.005625 0.0115312 0 0 0 0 0 0 
0.005625 0.0117188 0 0 0 0 0 0 
0.005625 0.0119063 0 0 0 0 0 0 
0.013125 0.00271875 2.0061 2.58095e+21 1.71633e-05 2.57399 -0.289066 1.49323 
0.014375 0.00271875 1.92021 2.41527e+21 1.60616e-05 1.62865 1.37282 -1.50511 
0.013125 0.00290625 2.0676 2.42e+21 1.6093e-05 -1.08069 -0.920172 -1.48817 
0.014375 0.00290625 1.98943 2.36927e+21 1.57556e-05 -0.212651 0.346202 -2.36164 
0.015625 0.00271875 1.9886 2.3828e+21 1.58456e-05 0.228424 -3.41686 0.869027 
0.016875 0.00271875 1.9412 2.47272e+21 1.64436e-05 1.14459 0.391287 -1.07312 
0.018125 0.00271875 1.87203 2.51018e+21 1.66927e-05 4.89123 -2.47058 -3.51524 
0.019375 0.00290625 2.00492 2.52114e+21 1.67656e-05 4.39925 -3.75977 -0.392224 
0.018125 0.0135938 0 0 0 0 0 0 
0.018125 0.0137813 0 0 0 0 0 0 
0.018125 0.0139688 0 0 0 0 0 0 
0.018125 0.0141563 0 0 0 0 0 0 
0.018125 0.0143437 0 0 0 0 0 0 
0.018125 0.0145312 0 0 0 0 0 0 
0.018125 0.0147187 0 0 0 0 0 0 
0.018125 0.0149062 0 0 0 0 0 0 
0.018125 0.0165937 0 0 0 0 0 0 
0.018125 0.0167812 0 0 0 0 0 0 
0.018125 0.0169687 0 0 0 0 0 0 
0.018125 0.0171562 0 0 0 0 0 0 
0.018125 0.0173437 0 0 0 0 0 0 
0.018125 0.0175312 0 0 0 0 0 0 
0.018125 0.0177187 0 0 0 0 0 0 
0.018125 0.0179062 0 0 0 0 0 0 
0.018125 0.0195938 0 0 0 0 0 0 
0.018125 0.0197812 0 0 0 0 0 0 
0.018125 0.0199687 0 0 0 0 0 0 
0.018125 0.0201562 0 0 0 0 0 0 
0.018125 0.0203437 0 0 0 0 0 0 
0.018125 0.0205312 0 0 0 0 0 0 
0.018125 0.0207187 0 0 0 0 0 0 
0.018125 0.0209062 0 0 0 0 0 0 
0.023125 0.00234375 1.9649 2.40188e+21 1.59725e-05 4.53582 -3.66195 0.786794 
0.023125 0.00253125 2.02555 2.46809e+21 1.64128e-05 4.09993 1.13595 3.90153 
0.024375 0.00253125 2.06079 2.25348e+21 1.49856e-05 3.85723 0.781579 4.86834 
0.028125 0.00271875 1.89411 2.46523e+21 1.63938e-05 -3.68593 0.0795262 -0.545609 
0.029375 0.00271875 2.01584 2.30537e+21 1.53307e-05 -0.123617 2.40089 -1.01813 
0.028125 0.00290625 1.96667 2.416e+21 1.60664e-05 0.845672 -1.93982 -2.0352 
0.029375 0.00290625 2.02645 2.50011e+21 1.66258e-05 3.24591 -1.55597 -0.65327 
0.005625 0.00271875 0 0 0 0 0 0 
0.005625 0.00290625 0 0 0 0 0 0 
0.015625 0.00234375 1.95985 2.45983e+21 1.63579e-05 -1.04463 -2.18342 -2.64189 
0.016875 0.00234375 2.03291 2.42796e+21 1.61459e-05 0.147656 -1.72661 -0.112069 
0.015625 0.00253125 1.9586 2.38493e+21 1.58598e-05 0.401047 0.794784 0.588924 
0.025625 0.00196875 1.9034 2.50757e+21 1.66753e-05 5.16675 1.62352 -4.19833 
0.026875 0.00196875 1.9613 2.56275e+21 1.70423e-05 -0.174693 -0.905466 4.0044 
0.025625 0.00215625 2.01164 2.31156e+21 1.53719e-05 3.11923 -2.37595 1.0661 
0.026875 0.00215625 2.00797 2.42179e+21 1.61049e-05 2.42036 0.393274 0.613389 
0.028125 0.00196875 2.03733 2.36615e+21 1.57349e-05 2.09797 2.2765 -0.331939 
0.029375 0.00196875 1.96206 2.37305e+21 1.57808e-05 3.28211 -2.30862 -0.476463 
0.028125 0.00215625 1.95987 2.51312e+21 1.67122e-05 4.33204 -2.53478 5.33869 
0.029375 0.00215625 1.99414 2.43124e+21 1.61677e-05 0.745173 0.507099 -3.06567 
0.020625 0.00271875 1.93826 2.40778e+21 1.60117e-05 4.83269 0.196204 0.191559 
0.021875 0.00271875 2.06311 2.48021e+21 1.64934e-05 2.33311 -0.790341 -1.38998 
0.020625 0.00290625 2.02235 2.47908e+21 1.64859e-05 3.24743 2.02281 -2.51993 
0.025625 0.00234375 2.01419 2.43086e+21 1.61652e-05 4.02385 -2.48887 0.569256 
0.026875 0.00234375 2.00972 2.51488e+21 1.6724e-05 1.64424 1.93803 -0.171576 
0.028125 0.00234375 1.94624 2.48301e+21 1.6512e-05 1.67958 2.50323 -0.460702 
0.029375 0.00234375 2.0454 2.53516e+21 1.68588e-05 -1.53872 -0.877139 0.30852 
0.028125 0.00253125 1.94128 2.35005e+21 1.56279e-05 -0.740072 -2.41876 1.24307 
0.029375 0.00253125 1.99341 2.55126e+21 1.69659e-05 -0.0153731 -2.88802 6.72331 
0.026875 0.00271875 2.03629 2.28539e+21 1.51979e-05 2.78986 3.16808 0.166182 
0.0040625 0.000984375 1.8868 1.24171e+22 8.25738e-05 32.3646 -5.42067 -0.207882 
0.0046875 0.000984375 1.97968 1.05408e+22 7.0096e-05 33.495 -0.399784 -0.565885 
0.0040625 0.00107813 1.85481 1.23703e+22 8.22627e-05 32.6885 -4.95674 5.91851 
0.0046875 0.00107813 1.75901 1.09595e+22 7.28804e-05 32.5516 2.85184 -1.41761 
0.0040625 0.00117188 1.76319 1.2192e+22 8.10765e-05 25.7129 -4.92037 1.43474 
0.0046875 0.00117188 1.9649 1.06158e+22 7.05951e-05 32.2928 3.1311 -2.75573 
0.0040625 0.00126563 2.05803 1.21688e+22 8.09224e-05 25.2588 -0.390079 -0.105916 
0.0046875 0.00126563 1.95843 1.10957e+22 7.37863e-05 26.4493 0.510278 2.40718 
0.0040625 0.00135937 1.92802 1.27283e+22 8.46429e-05 20.6492 0.421496 8.52802 
0.0046875 0.00135937 1.98699 1.07301e+22 7.13552e-05 23.1471 -0.0426595 -4.91395 
0.0040625 0.00145312 1.9314 1.20192e+22 7.99279e-05 18.9726 -0.364529 3.48586 
0.0046875 0.00145312 1.88196 1.10098e+22 7.32155e-05 22.5632 -0.402383 -0.71343 
0.0053125 0.000984375 1.9233 8.36086e+21 5.55997e-05 43.627 5.22883 -2.37719 
0.0059375 0.000984375 1.737 8.1677e+21 5.43152e-05 45.0948 1.28028 5.70044 
0.0053125 0.00107813 1.91251 8.81795e+21 5.86394e-05 35.1664 -5.31697 -0.755508 
0.0059375 0.00107813 1.76772 8.6164e+21 5.72991e-05 48.6605 2.8659 -0.22762 
0.0053125 0.00135937 2.00465 9.49124e+21 6.31168e-05 27.099 -0.172589 2.69821 
0.0059375 0.00135937 1.84766 7.45312e+21 4.95633e-05 33.8459 -2.40087 0.918594 
0.0053125 0.00145312 1.98077 9.12191e+21 6.06607e-05 22.1758 -2.90752 1.93952 
0.0059375 0.00145312 1.92048 7.85082e+21 5.2208e-05 30.0219 2.43915 3.57422 
0.0065625 0.00417188 1.93592 3.19342e+21 2.12362e-05 -1.24461 7.05194 -0.839432 
0.0071875 0.00417188 2.02624 3.22938e+21 2.14754e-05 -1.95722 5.57752 -0.518524 
0.0065625 0.00426563 1.87003 3.14597e+21 2.09207e-05 -2.3541 8.98334 -3.92907 
0.0071875 0.00426563 2.07473 3.28576e+21 2.18503e-05 -0.976146 7.6689 3.10014 
0.0078125 0.00417188 2.01508 3.17729e+21 2.1129e-05 1.167 12.8214 -1.38731 
0.0084375 0.00417188 2.04291 3.65259e+21 2.42897e-05 1.12923 10.5347 4.14098 
0.0078125 0.00426563 2.03506 3.38128e+21 2.24855e-05 -1.81458 6.87703 1.0535 
0.0084375 0.00426563 1.82737 3.37491e+21 2.24431e-05 -3.51039 14.3511 0.386234 
0.0078125 0.00604688 1.99755 2.97369e+21 1.9775e-05 1.03135 10.0811 0.84538 
0.0084375 0.00604688 1.85143 3.19829e+21 2.12686e-05 0.351219 8.37972 -1.11933 
0.0078125 0.00614063 1.96039 3.13177e+21 2.08263e-05 -1.90156 10.5469 0.0210974 
0.0084375 0.00614063 1.94444 3.00791e+21 2.00026e-05 -1.3619 1.60739 -1.44908 
0.0078125 0.00623438 2.01761 3.11953e+21 2.07449e-05 -0.939385 11.3078 0.256256 
0.0084375 0.00623438 2.00793 3.36787e+21 2.23963e-05 -2.64626 8.44437 -1.8182 
0.0078125 0.00632813 1.99938 3.14199e+21 2.08942e-05 0.526916 7.64921 0.903214 
0.0084375 0.00632813 1.91224 2.93167e+21 1.94956e-05 1.24836 7.32925 -1.49728 
0.0065625 0.00642188 2.04301 3.07155e+21 2.04258e-05 -2.81315 7.07681 0.535665 
0.0071875 0.00642188 2.01129 3.28223e+21 2.18268e-05 -4.9855 7.20026 1.18741 
0.0071875 0.00651563 2.02992 3.13078e+21 2.08197e-05 -4.44803 3.93548 0.783829 
0.0065625 0.00660938 2.13399 3.09694e+21 2.05947e-05 -2.35468 4.50295 -5.6018 
0.0071875 0.00660938 2.08954 3.01651e+21 2.00598e-05 1.14828 3.89828 -4.38301 
0.0065625 0.00670313 1.97572 3.09704e+21 2.05953e-05 -4.07838 8.2362 0.0920422 
0.0071875 0.00670313 1.98964 3.01889e+21 2.00756e-05 -2.83208 7.7139 0.591353 
0.0084375 0.00660938 2.11207 3.0535e+21 2.03057e-05 0.514088 7.44681 -1.09104 
0.0078125 0.00670313 1.91549 3.1283e+21 2.08032e-05 -1.36934 10.6135 -0.980486 
0.0084375 0.00670313 1.97655 3.07157e+21 2.0426e-05 -2.01116 6.24529 2.53297 
0.0065625 0.00698437 2.13393 3.25938e+21 2.16749e-05 -2.75493 5.86266 0.608694 
0.0071875 0.00698437 1.96407 3.06456e+21 2.03793e-05 -0.427824 7.2279 -2.18892 
0.0065625 0.00707812 1.99571 2.99235e+21 1.98991e-05 -2.16949 4.52768 1.33094 
0.0071875 0.00707812 1.95313 3.16595e+21 2.10536e-05 -2.33022 6.17446 -1.5973 
0.0090625 0.00679687 1.98647 3.07317e+21 2.04365e-05 -0.368479 4.91937 1.31443 
0.0096875 0.00679687 2.01798 3.07781e+21 2.04674e-05 -3.30613 1.56145 -11.8277 
0.0090625 0.00689062 2.02295 3.07866e+21 2.04731e-05 -2.98608 6.62299 0.48388 
0.0096875 0.00689062 2.13463 3.05183e+21 2.02946e-05 1.4128 6.46727 4.44697 
0.0078125 0.00698437 1.99551 3.07622e+21 2.04569e-05 -0.580209 8.36034 0.968398 
0.0084375 0.00698437 1.93733 2.95955e+21 1.9681e-05 0.541264 11.2746 -0.00374271 
0.0078125 0.00707812 2.02009 3.17747e+21 2.11302e-05 1.52993 9.94819 -3.45126 
0.0084375 0.00707812 1.90012 3.12758e+21 2.07984e-05 0.441394 8.4338 -1.89552 
0.0065625 0.00717187 2.03136 3.02988e+21 2.01487e-05 3.31873 4.64172 -6.01283 
0.0071875 0.00717187 1.92621 3.06776e+21 2.04006e-05 -1.25576 6.72136 -1.6116 
0.0065625 0.00726562 1.99619 3.20887e+21 2.1339e-05 -5.31179 2.52412 -0.844567 
0.0071875 0.00726562 2.06497 3.10668e+21 2.06594e-05 -1.38969 7.63932 2.6579 
0.0065625 0.00735937 1.96241 3.14602e+21 2.0921e-05 0.0362611 0.361986 -1.74152 
0.0071875 0.00735937 2.01586 2.93424e+21 1.95127e-05 -1.59253 8.67854 2.03042 
0.0065625 0.00745312 2.00015 3.2019e+21 2.12926e-05 3.4087 5.27871 0.57503 
0.0071875 0.00745312 1.97063 3.15244e+21 2.09637e-05 -2.24297 4.08821 3.54966 
0.0078125 0.00717187 1.99607 3.09427e+21 2.05769e-05 -1.88348 11.7439 2.2133 
0.0084375 0.00717187 1.86528 3.02231e+21 2.00984e-05 -1.12556 5.66815 0.587962 
0.0078125 0.00726562 2.02961 2.82256e+21 1.877e-05 0.188555 5.30213 -6.92277 
0.0096875 0.00717187 2.14907 3.23758e+21 2.15299e-05 1.53537 6.46909 -2.542 
0.0096875 0.00726562 1.94098 3.10536e+21 2.06506e-05 -3.48643 11.0163 -1.473 
0.0096875 0.00735937 1.83054 2.81279e+21 1.87051e-05 2.29785 1.25468 4.58479 
0.0090625 0.00745312 2.00973 2.90097e+21 1.92915e-05 -4.56375 4.4878 -1.05593 
0.0096875 0.00745312 2.18494 2.96845e+21 1.97402e-05 2.97386 -7.49775 2.0225 
0.0065625 0.00904687 2.02951 2.95952e+21 1.96808e-05 -0.998583 3.79539 -0.0579882 
0.0071875 0.00904687 1.99592 2.80425e+21 1.86483e-05 -1.47752 4.23964 2.48004 
0.0065625 0.00914062 2.00582 2.92917e+21 1.9479e-05 3.62811 5.83061 -0.576876 
0.0071875 0.00914062 1.97523 2.82898e+21 1.88127e-05 -2.05208 5.13935 -0.59996 
0.0084375 0.00914062 1.95924 2.86167e+21 1.90301e-05 -0.924969 6.45903 0.2461 
0.0078125 0.00932812 1.99954 2.7925e+21 1.85701e-05 3.61748 9.51413 1.67999 
0.0084375 0.00932812 2.02069 2.83035e+21 1.88219e-05 1.51813 2.99614 -2.88029 
0.0090625 0.00923437 2.04956 2.79438e+21 1.85826e-05 -0.259369 5.46397 1.10265 
0.0096875 0.00923437 2.2 3.26169e+21 2.16902e-05 -3.64605 -1.77396 0.65529 
0.0096875 0.00932812 1.95933 2.78273e+21 1.85052e-05 -10.9539 -8.713 -8.14104 
0.0065625 0.00942187 1.94218 2.66669e+21 1.77335e-05 4.72474 5.33709 1.85382 
0.0065625 0.00951562 1.97815 2.79674e+21 1.85983e-05 -2.14898 6.17396 -1.0922 
0.0071875 0.00951562 1.90495 3.04291e+21 2.02353e-05 2.5908 -0.0166929 2.32411 
0.0065625 0.00960937 1.96284 2.91415e+21 1.93791e-05 3.89567 3.33366 2.10567 
0.0065625 0.00970312 1.90217 2.80268e+21 1.86378e-05 -0.0576367 1.39286 1.48192 
0.0078125 0.00951562 1.98718 2.77173e+21 1.8432e-05 -2.10707 5.43622 1.31865 
0.0084375 0.00951562 2.0143 2.87735e+21 1.91343e-05 3.47442 5.09703 -0.422241 
0.0090625 0.00942187 1.98989 3.00976e+21 2.00149e-05 -0.822317 5.21019 -1.81906 
0.0096875 0.00942187 1.98077 3.2549e+21 2.16451e-05 -9.92355 9.50585 -2.81845 
0.0096875 0.00951562 2.0107 2.86273e+21 1.90372e-05 7.3576 -3.94108 -0.304598 
0.0078125 0.00960937 2.03804 3.06975e+21 2.04139e-05 2.10273 5.61754 3.10854 
0.0078125 0.00970312 2.0218 2.81055e+21 1.86901e-05 -1.95554 5.40645 0.762836 
0.0090625 0.00970312 2.00452 2.81335e+21 1.87088e-05 4.82462 4.25238 0.681096 
0.0096875 0.00970312 1.90095 2.91692e+21 1.93975e-05 2.39493 4.71429 -0.54617 
0.0065625 0.00979687 1.93698 2.85838e+21 1.90082e-05 1.23636 0.75707 1.02677 
0.0065625 0.00989062 1.99715 2.9686e+21 1.97412e-05 4.63116 0.0950917 0.146758 
0.0071875 0.00989062 1.93249 2.75177e+21 1.82993e-05 0.648687 4.41312 -0.831063 
0.0065625 0.0100781 2.05278 2.83957e+21 1.88832e-05 -2.24271 4.4325 -0.280725 
0.0090625 0.00998437 1.95633 2.78579e+21 1.85255e-05 3.15345 4.51585 1.42784 
0.0090625 0.0100781 2.03336 2.96471e+21 1.97153e-05 0.609196 4.97557 -2.73885 
0.0096875 0.0100781 2.06356 2.70327e+21 1.79768e-05 3.11834 1.42186 -2.28088 
0.0065625 0.0101719 2.07706 2.96599e+21 1.97239e-05 3.18121 1.20048 -0.704141 
0.0065625 0.0104531 2.0921 2.73461e+21 1.81852e-05 -0.42188 0.975868 0.141852 
0.0090625 0.0101719 1.967 2.93471e+21 1.95158e-05 2.35447 3.20171 -2.21417 
0.0096875 0.0101719 2.00959 2.57956e+21 1.7154e-05 4.22308 1.28121 1.17169 
0.0084375 0.0103594 1.95901 2.88422e+21 1.918e-05 6.5382 4.73205 1.61359 
0.0096875 0.0120469 2.03872 2.77106e+21 1.84276e-05 7.59076 -2.77236 -0.623157 
0.0065625 0.0124219 1.9104 2.89472e+21 1.92499e-05 -1.7343 -0.299042 -0.217548 
0.0065625 0.0125156 1.95526 2.71285e+21 1.80405e-05 -0.582058 -2.53028 -0.511442 
0.0096875 0.0125156 1.94161 2.85609e+21 1.8993e-05 3.45323 0.695566 0.766781 
0.0078125 0.0127031 1.98728 2.94742e+21 1.96003e-05 -2.60023 0.462179 -5.27647 
0.0084375 0.0127031 1.9257 3.00251e+21 1.99667e-05 3.65187 -6.45525 -0.0285439 
0.0090625 0.0127031 2.09633 2.93824e+21 1.95393e-05 2.12826 -0.777884 2.54175 
0.0096875 0.0127031 2.04868 2.81428e+21 1.8715e-05 -1.31104 -1.41726 -3.28513 
0.0153125 0.00660938 2.02624 2.34252e+21 1.55778e-05 4.47161 2.29018 -0.654987 
0.0159375 0.00660938 1.92266 2.25211e+21 1.49765e-05 3.56899 2.03466 -0.02761 
0.0153125 0.00670313 1.875 2.56505e+21 1.70576e-05 -2.31643 -0.771087 -0.722856 
0.0159375 0.00670313 2.1284 2.47185e+21 1.64378e-05 -1.78963 0.00700125 0.927394 
0.0140625 0.00735937 2.08963 2.55039e+21 1.69601e-05 4.08333 -1.43696 -1.42876 
0.0146875 0.00735937 2.04522 2.55039e+21 1.69601e-05 0.515662 1.77443 1.68846 
0.0140625 0.00745312 1.996 2.34337e+21 1.55834e-05 -2.54585 -2.93853 -0.241125 
0.0146875 0.00745312 1.90803 2.34702e+21 1.56077e-05 -3.54049 0.525208 2.26158 
0.0165625 0.00735937 1.97186 2.4655e+21 1.63956e-05 1.43018 3.8494 3.3859 
0.0171875 0.00735937 1.91277 2.37322e+21 1.57819e-05 1.48883 -3.46009 -1.26252 
0.0165625 0.00745312 1.9926 2.45635e+21 1.63347e-05 1.60248 -1.18736 -1.8771 
0.0171875 0.00745312 1.99882 2.37617e+21 1.58015e-05 -0.567927 -1.19426 2.06104 
0.0178125 0.00717187 1.9399 2.49965e+21 1.66227e-05 1.69619 -5.95555 0.490147 
0.0184375 0.00717187 1.96393 2.47693e+21 1.64716e-05 0.574666 0.516487 4.56197 
0.0178125 0.00726562 1.93639 2.34403e+21 1.55878e-05 0.907197 0.0124105 3.1219 
0.0184375 0.00726562 2.00942 2.52348e+21 1.67811e-05 4.2817 3.86822 -4.81848 
0.0103125 0.00970312 1.99515 2.67058e+21 1.77594e-05 5.45786 -2.73239 -0.971572 
0.0109375 0.00970312 2.10704 2.85254e+21 1.89694e-05 5.04507 -0.687354 4.42664 
0.0115625 0.00960937 1.97176 2.66271e+21 1.77071e-05 4.84095 -1.719 3.27399 
0.0115625 0.00970312 1.89646 2.64539e+21 1.75918e-05 0.87688 0.509031 0.472291 
0.0121875 0.00970312 1.93662 2.595e+21 1.72567e-05 6.68709 -2.99905 -1.95908 
0.0140625 0.00942187 1.97308 2.52543e+21 1.67941e-05 6.79829 1.55824 1.66642 
0.0146875 0.00942187 1.99364 2.57732e+21 1.71392e-05 5.0683 -3.74529 -0.193568 
0.0140625 0.00951562 1.98013 2.42348e+21 1.61161e-05 2.02239 -0.0631912 1.90375 
0.0146875 0.00951562 2.00922 2.4977e+21 1.66097e-05 2.20555 1.08953 -2.15282 
0.0128125 0.00960937 2.05736 2.56661e+21 1.70679e-05 3.4243 0.90257 0.931629 
0.0134375 0.00960937 1.9846 2.6401e+21 1.75567e-05 3.28867 -4.30804 0.426832 
0.0128125 0.00970312 2.0929 2.53621e+21 1.68658e-05 7.00904 -0.555386 2.66848 
0.0134375 0.00970312 1.97401 2.48582e+21 1.65307e-05 3.1294 -1.58936 -3.1404 
0.0165625 0.00923437 2.00493 2.59142e+21 1.72329e-05 5.09312 -2.40639 -2.47044 
0.0165625 0.00932812 1.99164 2.40231e+21 1.59753e-05 2.91976 -1.88838 1.06578 
0.0171875 0.00932812 1.98453 2.41687e+21 1.60722e-05 3.21594 -2.71012 2.51946 
0.0178125 0.00904687 1.92555 2.28484e+21 1.51942e-05 7.04538 2.93678 1.46355 
0.0184375 0.00904687 2.11906 2.41394e+21 1.60527e-05 2.03492 -2.65208 0.109925 
0.0184375 0.00914062 1.98572 2.64177e+21 1.75678e-05 0.288209 0.648627 2.37636 
0.0190625 0.00923437 1.82823 2.37081e+21 1.57659e-05 0.369218 0.0137761 -1.13311 
0.0190625 0.00932812 1.98939 2.67894e+21 1.78149e-05 1.43454 1.20025 -0.626159 
0.0196875 0.00932812 1.93638 2.49549e+21 1.6595e-05 4.61604 -1.83177 -1.95114 
0.0153125 0.00942187 2.00861 2.41012e+21 1.60273e-05 -0.782753 -2.41918 -1.88455 
0.0159375 0.00942187 2.03315 2.60039e+21 1.72926e-05 3.98467 -2.60677 3.30908 
0.0153125 0.00951562 1.89004 2.45773e+21 1.63439e-05 -0.92108 -3.77736 -1.71826 
0.0159375 0.00951562 1.94518 2.35212e+21 1.56416e-05 1.75352 -1.05135 0.324338 
0.0178125 0.00942187 2.06462 2.45336e+21 1.63148e-05 2.83693 -0.442777 -0.609973 
0.0184375 0.00942187 2.02779 2.43318e+21 1.61806e-05 -2.18167 -3.48947 -2.27056 
0.0178125 0.00951562 1.94937 2.29503e+21 1.52619e-05 2.53996 -7.12645 -1.52074 
0.0184375 0.00951562 1.95714 2.57762e+21 1.71412e-05 3.1821 -4.81774 1.58775 
0.0178125 0.00960937 2.07209 2.40266e+21 1.59777e-05 4.81535 -0.995038 2.50315 
0.0184375 0.00960937 1.91781 2.4281e+21 1.61469e-05 3.2531 -5.06472 1.21507 
0.0184375 0.00970312 2.02807 2.42704e+21 1.61398e-05 -0.443615 -0.0960612 -0.118143 
0.0190625 0.00960937 1.97078 2.54399e+21 1.69176e-05 0.698517 -5.05051 -2.24509 
0.0196875 0.00960937 1.98056 2.31786e+21 1.54138e-05 -2.26899 4.21831 2.38427 
0.0190625 0.00970312 2.06222 2.51382e+21 1.67169e-05 1.42345 2.63564 -3.28143 
0.0115625 0.00979687 1.91955 2.52303e+21 1.67782e-05 4.89064 -1.79151 0.694513 
0.0121875 0.00979687 1.94945 2.65889e+21 1.76816e-05 6.11464 2.21684 3.21453 
0.0115625 0.00989062 1.99675 2.6996e+21 1.79523e-05 4.05202 -0.514393 0.729481 
0.0121875 0.00989062 2.07387 2.63918e+21 1.75505e-05 4.33265 -1.16107 -1.01064 
0.0103125 0.00998437 2.03487 2.58175e+21 1.71686e-05 3.55719 3.50276 -0.611347 
0.0109375 0.00998437 1.93501 2.60079e+21 1.72953e-05 3.41752 -0.519139 -0.145048 
0.0103125 0.0100781 1.9524 2.65207e+21 1.76362e-05 2.31519 5.00013 4.26578 
0.0109375 0.0100781 1.9145 2.70866e+21 1.80126e-05 2.02965 -3.28528 0.218627 
0.0115625 0.0100781 1.9673 2.73023e+21 1.8156e-05 0.801222 -2.80278 1.11803 
0.0121875 0.0100781 2.04002 2.50383e+21 1.66505e-05 1.59165 -3.67875 -0.890291 
0.0128125 0.00979687 2.0619 2.63671e+21 1.75341e-05 5.0223 -3.90784 -1.73144 
0.0134375 0.00979687 1.92893 2.53135e+21 1.68335e-05 1.51793 -4.94502 -0.302125 
0.0128125 0.00989062 1.9956 2.55679e+21 1.70026e-05 5.38129 -4.46075 0.306141 
0.0134375 0.00989062 1.90183 2.40025e+21 1.59617e-05 5.88404 0.536057 -1.78717 
0.0128125 0.00998437 2.02167 2.6416e+21 1.75666e-05 3.52096 -1.60689 1.5201 
0.0134375 0.00998437 2.00609 2.52734e+21 1.68068e-05 1.09311 -0.6467 -2.86062 
0.0134375 0.0100781 2.05752 2.47418e+21 1.64533e-05 1.29037 -0.0841057 1.10048 
0.0140625 0.00998437 1.92951 2.55999e+21 1.70239e-05 5.19143 -4.09732 1.00619 
0.0146875 0.00998437 2.06254 2.73954e+21 1.82179e-05 4.87916 1.46243 2.06614 
0.0109375 0.0101719 1.98399 2.66501e+21 1.77223e-05 4.7638 -2.87458 -1.03673 
0.0103125 0.0102656 1.95615 2.76768e+21 1.8405e-05 7.12899 2.01373 1.87582 
0.0109375 0.0103594 1.98932 2.71641e+21 1.80641e-05 5.14476 -4.78203 2.12851 
0.0109375 0.0104531 2.04385 2.49456e+21 1.65888e-05 6.27538 -1.19581 -2.46333 
0.0115625 0.0104531 2.09798 2.5933e+21 1.72455e-05 8.99866 -0.543678 -0.297484 
0.0134375 0.0101719 1.93426 2.53416e+21 1.68522e-05 3.25801 -6.71814 0.0984045 
0.0134375 0.0102656 1.91508 2.50573e+21 1.66631e-05 2.92896 -4.63053 2.98097 
0.0140625 0.0101719 2.05348 2.58757e+21 1.72073e-05 7.4294 1.16524 -2.41638 
0.0140625 0.0102656 1.95434 2.60098e+21 1.72965e-05 5.00825 -2.74832 1.68782 
0.0128125 0.0103594 2.04531 2.56433e+21 1.70528e-05 6.78406 -2.33587 -0.188188 
0.0140625 0.0103594 2.02297 2.51189e+21 1.67041e-05 5.54879 -1.9347 -2.02774 
0.0146875 0.0103594 1.98712 2.54336e+21 1.69133e-05 4.31168 -0.434717 0.277088 
0.0140625 0.0104531 1.90326 2.51535e+21 1.67271e-05 4.14753 -0.981832 1.28694 
0.0165625 0.00979687 1.97942 2.36222e+21 1.57088e-05 6.35073 0.224908 0.290765 
0.0171875 0.00979687 2.01447 2.43431e+21 1.61882e-05 6.19216 -0.0597423 4.16355 
0.0171875 0.00989062 2.01154 2.50461e+21 1.66556e-05 0.842755 0.240125 1.96718 
0.0178125 0.00979687 1.90009 2.43985e+21 1.6225e-05 0.0252768 1.93321 -3.39913 
0.0184375 0.00979687 1.98015 2.45372e+21 1.63172e-05 5.35164 0.32526 -1.44109 
0.0178125 0.00989062 2.02479 2.38927e+21 1.58886e-05 2.25402 3.14199 -1.78432 
0.0184375 0.00989062 1.93723 2.46067e+21 1.63634e-05 1.29256 -3.85709 -0.287006 
0.0153125 0.0101719 2.00768 2.52348e+21 1.67811e-05 3.02081 -0.218329 -0.667028 
0.0153125 0.0102656 1.99088 2.33638e+21 1.5537e-05 4.88742 -5.19535 -1.78378 
0.0159375 0.0103594 1.97424 2.4778e+21 1.64774e-05 1.79759 -2.05261 -1.37126 
0.0153125 0.0104531 1.9804 2.45298e+21 1.63123e-05 2.87427 -5.2018 2.97306 
0.0121875 0.0120469 2.00923 2.65833e+21 1.76779e-05 3.11864 1.18592 -1.00757 
0.0140625 0.0122344 2.11185 2.47105e+21 1.64325e-05 8.17633 0.547041 0.167907 
0.0146875 0.0122344 1.98308 2.48437e+21 1.65211e-05 1.44258 -0.209521 3.35159 
0.0103125 0.0124219 2.03998 2.78581e+21 1.85256e-05 5.97966 -0.957851 1.64959 
0.0121875 0.0125156 1.97368 2.46978e+21 1.6424e-05 2.12101 1.00197 -3.73982 
0.0103125 0.0127031 2.07851 2.80969e+21 1.86844e-05 1.44252 -3.73226 -0.79209 
0.0109375 0.0127031 2.04951 2.86019e+21 1.90203e-05 2.35267 2.81591 0.161725 
0.0115625 0.0127031 1.96749 2.548e+21 1.69442e-05 0.0931649 1.1049 -0.143337 
0.0121875 0.0127031 2.10976 2.74542e+21 1.8257e-05 2.48867 2.36447 0.399374 
0.0128125 0.0124219 1.9832 2.58245e+21 1.71733e-05 1.23601 1.25695 1.56034 