ITEM: TIMESTEP
500000
ITEM: NUMBER OF CELLS
22890
ITEM: BOX BOUNDS oo ao pp
0 0.12
0 0.03
-0.1 0.1
ITEM: CELLS xc yc f_out[1] f_out[2] f_out[3] f_out[4] f_out[5] f_out[6] 
0.003 0.00375 0 0 0 0 0 0 
0.003 0.00525 0 0 0 0 0 0 
0.003 0.00675 0 0 0 0 0 0 
0.003 0.00825 0 0 0 0 0 0 
0.003 0.00975 0 0 0 0 0 0 
0.003 0.01125 0 0 0 0 0 0 
0.003 0.01275 0 0 0 0 0 0 
0.003 0.01425 0 0 0 0 0 0 
0.003 0.01575 0 0 0 0 0 0 
0.003 0.01725 0 0 0 0 0 0 
0.003 0.01875 0 0 0 0 0 0 
0.003 0.02025 0 0 0 0 0 0 
0.003 0.02175 0 0 0 0 0 0 
0.003 0.02325 0 0 0 0 0 0 
0.027 0.02325 0 0 0 0 0 0 
0.003 0.02475 0 0 0 0 0 0 
0.027 0.02475 0 0 0 0 0 0 
0.003 0.02625 0 0 0 0 0 0 
0.027 0.02625 0 0 0 0 0 0 
0.003 0.02775 0 0 0 0 0 0 
0.027 0.02775 0 0 0 0 0 0 
0.003 0.02925 0 0 0 0 0 0 
0.027 0.02925 0 0 0 0 0 0 
0.009 0.01425 0 0 0 0 0 0 
0.009 0.01575 0 0 0 0 0 0 
0.009 0.01725 0 0 0 0 0 0 
0.009 0.01875 0 0 0 0 0 0 
0.009 0.02025 0 0 0 0 0 0 
0.009 0.02175 0 0 0 0 0 0 
0.009 0.02325 0 0 0 0 0 0 
0.009 0.02475 0 0 0 0 0 0 
0.009 0.02625 0 0 0 0 0 0 
0.009 0.02775 0 0 0 0 0 0 
0.009 0.02925 0 0 0 0 0 0 
0.015 0.01425 0 0 0 0 0 0 
0.015 0.01575 0 0 0 0 0 0 
0.015 0.01725 0 0 0 0 0 0 
0.015 0.01875 0 0 0 0 0 0 
0.015 0.02025 0 0 0 0 0 0 
0.015 0.02175 0 0 0 0 0 0 
0.015 0.02325 0 0 0 0 0 0 
0.015 0.02475 0 0 0 0 0 0 
0.015 0.02625 0 0 0 0 0 0 
0.015 0.02775 0 0 0 0 0 0 
0.015 0.02925 0 0 0 0 0 0 
0.021 0.02325 0 0 0 0 0 0 
0.021 0.02475 0 0 0 0 0 0 
0.021 0.02625 0 0 0 0 0 0 
0.021 0.02775 0 0 0 0 0 0 
0.021 0.02925 0 0 0 0 0 0 
0.0015 0.000375 0 0 0 0 0 0 
0.0015 0.001125 0 0 0 0 0 0 
0.0255 0.022125 0 0 0 0 0 0 
0.0285 0.022125 0 0 0 0 0 0 
0.0105 0.000375 2.08179 2.81874e+21 1.87446e-05 1.42696 5.39038 -5.3154 
0.0105 0.001125 2.05774 2.80451e+21 1.865e-05 5.80745 7.49783 -2.23162 
0.0075 0.013125 0 0 0 0 0 0 
0.0105 0.013125 0 0 0 0 0 0 
0.0135 0.013125 0 0 0 0 0 0 
0.0165 0.013125 0 0 0 0 0 0 
0.0195 0.022125 0 0 0 0 0 0 
0.0225 0.022125 0 0 0 0 0 0 
0.00375 0.0001875 2.0278 7.3222e+21 4.86926e-05 28.9048 -1.22395 5.30815 
0.00525 0.0001875 1.75562 6.32281e+21 4.20467e-05 42.1061 -2.81328 0.796904 
0.00825 0.0009375 1.90501 2.78264e+21 1.85046e-05 21.3243 12.0179 0.242205 
0.00675 0.0016875 1.8534 2.54188e+21 1.69035e-05 19.7104 15.7917 -0.140401 
0.01125 0.0076875 0 0 0 0 0 0 
0.01125 0.0080625 0 0 0 0 0 0 
0.01125 0.0091875 0 0 0 0 0 0 
0.0255 0.000375 1.92852 1.41848e+21 9.43291e-06 1.99128 -1.25172 -1.8583 
0.0285 0.000375 1.99968 1.53543e+21 1.02106e-05 2.45446 -0.341283 -1.1059 
0.0135 0.000375 2.07454 1.53035e+21 1.01768e-05 1.38538 -4.65093 -0.257933 
0.0165 0.000375 1.93202 1.45998e+21 9.70888e-06 4.04683 0.596198 6.41571 
0.0195 0.000375 1.94038 1.50525e+21 1.00099e-05 0.439091 1.49205 0.181202 
0.0225 0.000375 1.95764 1.443e+21 9.59598e-06 1.94771 1.81012 1.39992 
0.01125 0.0069375 0 0 0 0 0 0 
0.01125 0.0073125 0 0 0 0 0 0 
0.01125 0.0084375 0 0 0 0 0 0 
0.01125 0.0088125 0 0 0 0 0 0 
0.01275 0.0039375 2.00836 1.45648e+21 9.68558e-06 0.704591 0.345014 -3.5023 
0.01275 0.0024375 2.05467 1.44736e+21 9.62493e-06 0.142703 -1.71901 0.260477 
0.01275 0.0028125 1.9522 1.47696e+21 9.82177e-06 1.41086 -0.303939 -0.487368 
0.004875 0.00084375 1.8554 6.0361e+21 4.01401e-05 30.3973 1.06168 2.81136 
0.005625 0.00084375 1.80225 4.9496e+21 3.29148e-05 38.7441 -0.135215 -3.02267 
0.004875 0.00103125 2.02196 6.92505e+21 4.60516e-05 28.4012 1.09367 -5.10495 
0.005625 0.00103125 1.81497 5.01545e+21 3.33527e-05 40.3542 2.85448 -0.195331 
0.003375 0.00121875 1.97686 7.83227e+21 5.20846e-05 21.8301 -7.70603 0.304437 
0.004125 0.00121875 2.05332 6.89044e+21 4.58214e-05 22.6445 0.475643 0.363581 
0.003375 0.00140625 2.02808 8.34464e+21 5.54919e-05 14.9983 -3.43851 3.89971 
0.004125 0.00140625 1.9476 6.8892e+21 4.58132e-05 17.7036 1.45795 -0.231385 
0.004875 0.00121875 1.93283 6.37041e+21 4.23632e-05 24.3472 1.92036 4.59094 
0.005625 0.00121875 1.93212 5.19104e+21 3.45204e-05 34.4649 0.374782 3.05599 
0.004875 0.00140625 2.04983 5.69808e+21 3.78922e-05 19.348 0.54757 0.297008 
0.005625 0.00140625 1.97154 4.81278e+21 3.2005e-05 20.174 -3.53249 -4.90155 
0.024375 0.00834375 1.96118 1.50292e+21 9.99442e-06 2.07182 -3.86381 4.64464 
0.024375 0.00853125 1.93461 1.41152e+21 9.3866e-06 -1.4561 0.403222 -3.54069 
0.025875 0.00909375 2.02887 1.47729e+21 9.82397e-06 -2.05507 -3.26259 0.52263 
0.024375 0.0216562 1.8817 1.62728e+21 1.08214e-05 -1.12367 -1.84998 -3.11953 
0.025125 0.0216562 1.97789 1.45561e+21 9.6798e-06 -1.58855 -4.90583 -3.36252 
0.025875 0.0216562 2.13209 1.43415e+21 9.5371e-06 -3.45009 6.13978 -0.522637 
0.026625 0.0216562 1.95361 1.50926e+21 1.00365e-05 -0.7569 4.85074 -4.7772 
0.028875 0.0216562 1.99927 1.5629e+21 1.03933e-05 -3.29859 1.31779 5.87891 
0.029625 0.0216562 1.96691 1.62728e+21 1.08214e-05 -2.76234 5.0956 0.272013 
0.006375 0.00121875 1.85185 3.83524e+21 2.55044e-05 36.9295 13.5489 3.12117 
0.007125 0.00121875 1.84931 2.99019e+21 1.98848e-05 35.1561 22.1312 -0.300491 
0.006375 0.00140625 1.89623 3.68604e+21 2.45122e-05 36.5107 9.33295 1.1824 
0.007125 0.00140625 2.02282 2.68003e+21 1.78222e-05 28.4885 18.3445 3.47482 
0.007875 0.00234375 2.03421 2.21646e+21 1.47394e-05 9.48419 9.68819 0.664417 
0.008625 0.00234375 2.05029 2.3082e+21 1.53496e-05 1.04031 5.5451 -4.53796 
0.007875 0.00253125 1.92915 2.1104e+21 1.40342e-05 1.48537 10.0941 -0.325674 
0.008625 0.00253125 1.92752 2.22665e+21 1.48072e-05 7.31186 14.1001 -0.10672 
0.007875 0.00309375 1.98329 1.88765e+21 1.25529e-05 -2.56536 17.0334 3.26786 
0.008625 0.00309375 1.9798 2.09617e+21 1.39395e-05 -2.71709 10.9448 -1.03174 
0.007875 0.00328125 2.06066 2.13161e+21 1.41752e-05 1.57358 12.8951 3.49103 
0.008625 0.00328125 1.93336 2.12126e+21 1.41064e-05 3.06246 10.6888 -0.045437 
0.006375 0.00346875 1.9876 2.02495e+21 1.34659e-05 2.17051 5.52679 0.740079 
0.007125 0.00346875 1.90045 2.10121e+21 1.39731e-05 0.443582 10.6459 -1.10784 
0.006375 0.00365625 1.92619 2.0662e+21 1.37402e-05 -2.8437 7.50018 -0.425064 
0.007125 0.00365625 2.03045 2.07704e+21 1.38123e-05 0.164355 4.1254 2.37593 
0.007875 0.00384375 1.92359 1.99633e+21 1.32756e-05 0.274053 9.26606 -1.57355 
0.008625 0.00384375 2.03182 2.02283e+21 1.34518e-05 2.72589 12.793 0.220273 
0.008625 0.00403125 2.05303 2.1e+21 1.3965e-05 -1.50798 11.6554 1.23257 
0.007875 0.00496875 2.02414 1.97938e+21 1.31629e-05 -4.70316 5.57732 2.18867 
0.008625 0.00496875 2.02344 1.99305e+21 1.32538e-05 -0.974625 8.22746 2.49595 
0.007875 0.00515625 2.02989 2.05447e+21 1.36622e-05 -3.15582 8.83959 1.42323 
0.007875 0.00571875 1.93349 1.97509e+21 1.31344e-05 -1.4675 4.43824 2.74496 
0.008625 0.00571875 1.97634 1.94145e+21 1.29106e-05 1.60393 7.00541 0.507861 
0.008625 0.00590625 1.99118 1.84341e+21 1.22586e-05 1.14702 7.58755 2.93376 
0.006375 0.00609375 2.10205 1.82824e+21 1.21578e-05 -3.62333 3.51938 -0.86406 
0.006375 0.00628125 1.97734 1.80407e+21 1.19971e-05 -1.03344 1.03265 1.32299 
0.008625 0.00609375 1.88646 1.87583e+21 1.24743e-05 2.1216 5.75242 1.73035 
0.007875 0.00628125 1.97668 1.85047e+21 1.23056e-05 0.683775 9.60499 -2.46849 
0.006375 0.00684375 1.89298 1.78292e+21 1.18564e-05 -2.48753 2.36011 -1.33179 
0.006375 0.00703125 2.01018 1.81083e+21 1.2042e-05 -2.86257 4.01522 -1.3188 
0.007875 0.00703125 2.01797 1.806e+21 1.20099e-05 2.08357 5.81624 1.29569 
0.006375 0.00759375 1.94716 1.7773e+21 1.1819e-05 3.75524 1.45282 -3.29599 
0.006375 0.00778125 1.98512 1.81628e+21 1.20783e-05 -0.616387 2.42556 0.4849 
0.006375 0.00796875 1.97954 1.72295e+21 1.14576e-05 -0.108935 0.934451 1.54235 
0.006375 0.00815625 2.12082 1.78481e+21 1.1869e-05 1.24323 3.7781 -4.11426 
0.006375 0.00834375 1.9706 1.8032e+21 1.19913e-05 2.68522 2.08818 2.24222 
0.006375 0.00853125 2.04544 1.77103e+21 1.17774e-05 -1.91975 1.29067 1.3958 
0.006375 0.00909375 2.08862 1.69182e+21 1.12506e-05 1.81318 4.37823 -1.59364 
0.006375 0.00928125 1.93438 1.65307e+21 1.09929e-05 1.85568 3.22904 -2.64357 
0.010125 0.00946875 1.85967 1.51843e+21 1.00976e-05 7.73081 6.35548 5.9164 
0.010875 0.00946875 2.06459 1.55947e+21 1.03705e-05 1.84662 1.01182 -2.56467 
0.011625 0.00946875 1.86032 1.62787e+21 1.08253e-05 4.94191 0.38753 -3.52773 
0.006375 0.0102187 1.97483 1.71946e+21 1.14344e-05 0.0417474 -0.414613 -4.92814 
0.006375 0.0104062 2.08734 1.81695e+21 1.20827e-05 1.37066 1.62864 1.51603 
0.006375 0.0105937 1.98754 1.81884e+21 1.20953e-05 2.86573 -1.73128 -1.47084 
0.006375 0.0107812 1.90022 1.66321e+21 1.10603e-05 3.27884 0.501672 -2.2802 
0.006375 0.0113437 1.96969 1.76219e+21 1.17186e-05 -1.95145 -0.251507 -0.61312 
0.006375 0.0115312 2.02333 1.69121e+21 1.12466e-05 0.42259 -1.42261 3.05685 
0.006375 0.0122813 1.99842 1.7348e+21 1.15364e-05 -3.9071 -2.35123 1.9798 
0.006375 0.0124688 1.96817 1.7836e+21 1.18609e-05 -1.89951 -1.89654 -0.67921 
0.006375 0.0126563 2.029 1.64947e+21 1.0969e-05 2.42652 -0.0334265 -3.25962 
0.016875 0.00759375 2.0328 1.38309e+21 9.19752e-06 -2.35765 5.40943 -1.54195 
0.016875 0.00778125 1.96156 1.51121e+21 1.00495e-05 6.75013 -2.71007 1.1392 
0.017625 0.00834375 1.88247 1.52734e+21 1.01568e-05 5.10993 0.355504 -0.440954 
0.017625 0.00928125 2.02336 1.47793e+21 9.82823e-06 3.79514 -1.32455 1.4838 
0.022125 0.00534375 1.99504 1.58209e+21 1.05209e-05 -0.470563 1.17829 -2.44052 
0.021375 0.00553125 1.95541 1.43025e+21 9.51115e-06 4.45831 -5.36407 -1.36741 
0.022125 0.00553125 1.97525 1.48549e+21 9.87854e-06 -0.240143 -4.99886 1.86358 
0.018375 0.00684375 1.97909 1.44701e+21 9.62262e-06 2.0829 -2.4606 0.808865 
0.019125 0.00684375 2.03492 1.45859e+21 9.6996e-06 1.3021 -1.13513 -1.6589 
0.020625 0.00815625 1.99553 1.48613e+21 9.88276e-06 -0.0859662 0.261296 -2.05865 
0.022875 0.00796875 2.02376 1.52536e+21 1.01436e-05 -0.556419 -1.23458 3.6762 
0.023625 0.00815625 2.00606 1.45976e+21 9.70743e-06 -0.393071 1.37453 3.27056 
0.022125 0.00871875 1.9965 1.56939e+21 1.04364e-05 3.92008 -0.304778 0.278062 
0.021375 0.00890625 2.01672 1.4385e+21 9.56601e-06 3.34788 -1.17423 0.557036 
0.022125 0.00890625 2.00244 1.47789e+21 9.82798e-06 -0.412001 -1.66389 -1.83771 
0.018375 0.0210937 0 0 0 0 0 0 
0.018375 0.0212812 0 0 0 0 0 0 
0.019875 0.0216562 1.9621 1.427e+21 9.48953e-06 2.01243 -3.67402 -7.18684 
0.020625 0.0216562 1.94333 1.56648e+21 1.04171e-05 10.4843 -0.87967 0.970415 
0.021375 0.0216562 1.87002 1.38408e+21 9.20413e-06 1.00116 -4.52974 4.55377 
0.022125 0.0216562 1.99297 1.48064e+21 9.84628e-06 1.54838 -0.808404 -2.16973 
0.0015 0.001875 0 0 0 0 0 0 
0.0015 0.002625 0 0 0 0 0 0 
0.0045 0.002625 0 0 0 0 0 0 
0.02475 0.0016875 1.9572 1.44028e+21 9.57786e-06 3.45272 4.93275 -0.349931 
0.02625 0.0016875 1.93863 1.49058e+21 9.91236e-06 2.43798 -0.054955 0.618308 
0.02475 0.0020625 1.97892 1.49805e+21 9.96203e-06 0.806114 -2.06462 1.19038 
0.01125 0.0054375 0 0 0 0 0 0 
0.01125 0.0058125 0 0 0 0 0 0 
0.01275 0.0031875 2.01909 1.52622e+21 1.01494e-05 -2.0828 0.445416 1.13338 
0.02025 0.0016875 2.0287 1.51741e+21 1.00908e-05 0.526269 -0.248073 -0.0303905 
0.01875 0.0020625 2.02094 1.47747e+21 9.82519e-06 1.45083 -1.36932 1.85582 
0.01575 0.0016875 2.00785 1.51908e+21 1.01019e-05 -0.99103 -6.37032 3.09638 
0.01725 0.0016875 1.94207 1.53585e+21 1.02134e-05 0.114022 1.50378 -0.801921 
0.01725 0.0020625 2.00724 1.52411e+21 1.01354e-05 -2.10692 2.00423 1.04791 
0.003375 0.00084375 1.97069 7.62455e+21 5.07032e-05 23.2563 -1.39827 -3.7751 
0.004125 0.00084375 1.85953 7.00187e+21 4.65625e-05 28.6396 1.72877 -0.222699 
0.003375 0.00103125 1.80664 8.12996e+21 5.40642e-05 23.0964 -0.760918 -1.00856 
0.004125 0.00103125 1.98927 8.24202e+21 5.48094e-05 26.197 0.967848 -0.681784 
0.025875 0.00609375 1.97868 1.53595e+21 1.02141e-05 -1.82946 0.0131908 -0.0152724 
0.026625 0.00609375 2.04519 1.48767e+21 9.89298e-06 -0.97602 -1.80194 -2.87199 
0.025875 0.00628125 2.01376 1.54776e+21 1.02926e-05 -0.641278 -2.33937 -0.217408 
0.026625 0.00628125 1.98466 1.49911e+21 9.96911e-06 0.355507 0.0470514 1.06155 
0.028125 0.00684375 1.96129 1.48505e+21 9.87555e-06 -0.926949 -0.783663 -3.08677 
0.027375 0.00703125 1.96838 1.4374e+21 9.55869e-06 0.585102 -1.39057 -2.17538 
0.028125 0.00703125 1.96034 1.42291e+21 9.46235e-06 5.65166 4.83959 4.55937 
0.027375 0.00721875 2.08606 1.49413e+21 9.93597e-06 0.831923 3.34062 -0.222518 
0.028125 0.00721875 2.03911 1.4471e+21 9.62319e-06 -0.207998 -4.36474 -2.61071 
0.027375 0.00740625 1.97179 1.49756e+21 9.9588e-06 -1.09599 2.3536 1.85025 
0.028125 0.00740625 1.99471 1.56786e+21 1.04263e-05 2.23988 -1.17853 -3.95315 
0.029625 0.00721875 2.01277 1.4565e+21 9.68574e-06 -3.19867 0.485349 4.63347 
0.028875 0.00740625 2.04839 1.47464e+21 9.80637e-06 1.98007 1.83903 3.78982 
0.029625 0.00740625 1.98017 1.47923e+21 9.83685e-06 3.56294 1.82774 1.37903 
0.024375 0.00778125 1.93686 1.51848e+21 1.00979e-05 1.19121 2.28191 -1.64681 
0.025125 0.00778125 1.98325 1.3803e+21 9.17902e-06 0.378144 -1.72613 -2.56758 
0.025875 0.00778125 1.90591 1.48648e+21 9.88509e-06 0.181997 -2.86683 0.0768192 
0.026625 0.00778125 1.94162 1.37739e+21 9.15967e-06 3.61724 1.90787 3.33979 
0.024375 0.00796875 2.02796 1.45292e+21 9.66195e-06 2.20414 1.99197 0.673439 
0.024375 0.00815625 1.95614 1.41814e+21 9.43061e-06 -0.291184 0.768889 -1.37223 
0.025125 0.00815625 1.98871 1.50417e+21 1.00027e-05 -2.10494 1.19733 1.20145 
0.025875 0.00796875 2.09877 1.54098e+21 1.02475e-05 -2.48256 -2.54785 -2.66555 
0.026625 0.00796875 1.98198 1.58927e+21 1.05686e-05 2.34129 -0.18222 -0.194741 
0.025875 0.00815625 1.97347 1.41814e+21 9.43061e-06 0.658839 0.904665 0.381351 
0.028125 0.00759375 2.03882 1.4591e+21 9.70299e-06 4.78437 0.398011 5.77009 
0.027375 0.00778125 1.98962 1.39048e+21 9.24672e-06 -0.258338 1.79245 -3.11811 
0.028125 0.00778125 2.03286 1.46612e+21 9.74968e-06 2.33485 3.79949 -1.56067 
0.027375 0.00796875 2.03424 1.43162e+21 9.52028e-06 1.43265 -0.446323 2.18497 
0.029625 0.00796875 1.94512 1.47991e+21 9.8414e-06 3.21998 -0.916219 -3.28964 
0.028875 0.00815625 1.9443 1.47087e+21 9.78125e-06 1.60506 0.129272 1.23238 
0.029625 0.00815625 1.98711 1.47225e+21 9.79048e-06 1.76788 1.67558 1.99962 
0.025125 0.00890625 2.07596 1.40673e+21 9.35475e-06 -1.02536 0.130003 -0.831629 
0.027375 0.00834375 1.9253 1.45273e+21 9.66067e-06 2.25285 1.05116 2.05924 
0.028125 0.00834375 2.00858 1.51513e+21 1.00756e-05 0.637657 0.639222 -1.68144 
0.027375 0.00853125 2.04197 1.50969e+21 1.00394e-05 -0.109433 -0.426944 1.14426 
0.029625 0.00853125 2.02702 1.46193e+21 9.72183e-06 1.54466 -2.49741 -2.39894 
0.028125 0.00890625 2.05342 1.43596e+21 9.54911e-06 3.96497 3.40216 -0.847275 
0.029625 0.00871875 2.02054 1.46554e+21 9.74583e-06 1.98397 -0.723139 -2.20436 
0.029625 0.00890625 1.9546 1.55287e+21 1.03266e-05 1.77056 0.898035 -0.351272 
0.027375 0.0216562 2.09687 1.51998e+21 1.01079e-05 3.28754 4.16582 2.21646 
0.028125 0.0216562 1.99649 1.52714e+21 1.01555e-05 0.186907 0.666698 1.59785 
0.007875 0.00346875 1.97314 2.18278e+21 1.45155e-05 0.319054 10.9429 1.88393 
0.008625 0.00346875 2.08973 2.06206e+21 1.37127e-05 -2.97077 14.6745 -0.730327 
0.007875 0.00365625 1.99236 2.15442e+21 1.43269e-05 -6.37918 15.891 -2.04206 
0.008625 0.00365625 1.94267 2.13275e+21 1.41828e-05 -2.97635 16.4104 0.403441 
0.007875 0.00459375 2.07534 2.0301e+21 1.35002e-05 1.9801 7.57177 -4.06394 
0.008625 0.00459375 2.11571 1.98822e+21 1.32216e-05 2.09333 6.16438 2.1736 
0.007875 0.00478125 1.94983 1.95522e+21 1.30022e-05 -1.44703 7.96104 -1.87721 
0.008625 0.00478125 1.9905 1.87237e+21 1.24513e-05 -1.7436 7.92316 0.355298 
0.006375 0.00496875 1.93075 2.04572e+21 1.36041e-05 -4.86399 4.86416 1.72928 
0.007125 0.00496875 1.88655 1.84727e+21 1.22844e-05 -5.25294 12.5671 1.92451 
0.006375 0.00515625 2.01313 1.97545e+21 1.31367e-05 -2.09766 9.14997 1.73519 
0.007125 0.00515625 1.92243 1.89863e+21 1.26259e-05 0.636701 6.71293 -3.24395 
0.006375 0.00534375 2.03868 1.91805e+21 1.2755e-05 1.71789 3.72713 -3.05348 
0.007125 0.00534375 2.00189 1.89555e+21 1.26054e-05 1.36223 6.46447 2.48452 
0.006375 0.00553125 2.04245 1.84152e+21 1.22461e-05 -2.40597 4.53528 -1.98804 
0.007125 0.00553125 2.00944 1.89881e+21 1.26271e-05 -0.200303 3.41204 1.64036 
0.007875 0.00534375 2.03283 1.94002e+21 1.29012e-05 1.39363 5.43099 -3.8255 
0.008625 0.00534375 1.93341 1.91461e+21 1.27321e-05 -0.903657 7.41831 -1.42083 
0.007875 0.00553125 2.05114 1.90904e+21 1.26951e-05 -3.52072 8.57366 1.80226 
0.006375 0.00571875 1.95434 1.84423e+21 1.22641e-05 0.136099 6.3994 -1.11954 
0.007125 0.00571875 1.92923 1.92957e+21 1.28317e-05 -3.31025 5.54713 -0.9559 
0.006375 0.00590625 1.95349 1.85754e+21 1.23526e-05 0.931568 3.38354 2.79679 
0.006375 0.00646875 2.04314 1.93549e+21 1.2871e-05 3.67167 6.18756 -1.95849 
0.006375 0.00665625 1.8606 1.98617e+21 1.32081e-05 -2.37298 7.3495 -1.82795 
0.006375 0.00721875 2.02036 1.96075e+21 1.3039e-05 0.253621 4.62622 -5.08435 
0.006375 0.00740625 2.02273 1.91971e+21 1.27661e-05 2.28162 4.91652 2.37629 
0.006375 0.00871875 2.04772 1.85464e+21 1.23334e-05 3.70617 3.96007 -2.11848 
0.006375 0.00890625 2.06562 1.85372e+21 1.23272e-05 -1.57267 5.04312 -0.444495 
0.006375 0.00946875 2.12711 1.79514e+21 1.19377e-05 -0.36988 4.78906 2.36513 
0.006375 0.00965625 2.02547 1.61744e+21 1.0756e-05 -4.55268 0.545278 4.01387 
0.006375 0.00984375 2.07342 1.77203e+21 1.1784e-05 2.69939 1.07607 1.48077 
0.006375 0.0100312 1.99147 1.78121e+21 1.18451e-05 -0.00711527 5.35344 -1.58319 
0.006375 0.0109687 1.97691 1.62704e+21 1.08198e-05 0.00928027 1.39039 0.108925 
0.013875 0.00646875 1.9736 1.51165e+21 1.00525e-05 0.190047 0.669561 -0.498786 
0.014625 0.00646875 2.00872 1.46441e+21 9.73833e-06 4.5386 0.632487 -0.261685 
0.013875 0.00665625 2.05971 1.53368e+21 1.0199e-05 -0.808811 -3.80721 0.349594 
0.016875 0.00646875 1.92718 1.5099e+21 1.00408e-05 2.8421 -2.88569 -0.359506 
0.017625 0.00646875 1.9412 1.47841e+21 9.8314e-06 -2.09929 0.541642 -0.0468765 
0.016875 0.00665625 1.97835 1.53708e+21 1.02216e-05 0.395376 -1.57243 1.65933 
0.017625 0.00665625 2.03876 1.50987e+21 1.00407e-05 -0.113604 -0.729381 -0.869697 
0.013875 0.00684375 1.96547 1.43709e+21 9.55663e-06 3.44175 0.648555 3.85787 
0.014625 0.00684375 1.99175 1.46024e+21 9.71059e-06 0.000609023 0.65767 -1.20764 
0.013875 0.00703125 2.05373 1.53236e+21 1.01902e-05 4.42351 2.99138 1.35611 
0.014625 0.00703125 1.99859 1.48247e+21 9.8584e-06 -1.35858 -1.7415 -3.89894 
0.013875 0.00721875 1.93245 1.42515e+21 9.47722e-06 -1.64956 0.045706 2.49486 
0.014625 0.00721875 1.91468 1.46905e+21 9.76915e-06 1.94263 1.70499 -1.88316 
0.014625 0.00740625 2.03453 1.59689e+21 1.06193e-05 2.32146 0.947562 1.10666 
0.016125 0.00703125 1.92883 1.44544e+21 9.61221e-06 1.49435 -1.40201 1.03618 
0.016875 0.00684375 2.0086 1.39409e+21 9.2707e-06 6.32562 0.40459 -4.08254 
0.017625 0.00684375 2.03667 1.4222e+21 9.45766e-06 2.13584 -2.96802 -3.55319 
0.016875 0.00703125 2.00896 1.50822e+21 1.00297e-05 5.42923 -3.43406 3.99386 
0.017625 0.00703125 2.01153 1.48569e+21 9.87981e-06 3.33154 0.517239 0.261659 
0.016875 0.00721875 1.9963 1.47532e+21 9.81086e-06 2.54313 -2.71984 -0.327941 
0.017625 0.00721875 2.00531 1.42985e+21 9.5085e-06 -1.41394 -2.63263 1.30536 
0.017625 0.00740625 2.06863 1.44714e+21 9.62345e-06 0.939999 2.27472 0.213038 
0.013875 0.00796875 2.02812 1.52962e+21 1.0172e-05 -0.0121367 -0.422947 0.0894179 
0.014625 0.00796875 2.02075 1.56655e+21 1.04175e-05 3.16671 -1.99563 -0.777175 
0.015375 0.00759375 1.95102 1.46357e+21 9.73272e-06 0.309116 0.179813 -1.03736 
0.016125 0.00759375 1.92658 1.50977e+21 1.004e-05 1.00966 -2.49329 -4.71037 
0.015375 0.00796875 1.9443 1.44866e+21 9.63361e-06 -0.286715 -0.706298 -3.48375 
0.016875 0.00815625 1.99936 1.48613e+21 9.88276e-06 0.790959 -0.685029 -3.08205 
0.013875 0.00834375 1.97738 1.51106e+21 1.00485e-05 2.1252 -2.35218 -2.13814 
0.013875 0.00871875 1.98907 1.59924e+21 1.0635e-05 4.14172 0.574823 1.73696 
0.016125 0.00890625 1.9226 1.49822e+21 9.96318e-06 0.0826167 0.626317 1.66672 
0.012375 0.00946875 2.03968 1.61263e+21 1.0724e-05 -0.754468 -5.1747 -3.34854 
0.019875 0.00384375 2.13228 1.55466e+21 1.03385e-05 -4.819 -1.34959 -0.682919 
0.020625 0.00384375 1.94664 1.52227e+21 1.01231e-05 0.429578 -2.9777 5.39639 
0.019875 0.00403125 2.05505 1.53289e+21 1.01937e-05 1.14228 0.427423 0.224491 
0.020625 0.00403125 2.00498 1.52727e+21 1.01564e-05 -1.91333 -0.807627 0.321284 
0.018375 0.00534375 2.01073 1.44019e+21 9.57728e-06 -1.87046 -2.40303 1.08889 
0.019125 0.00534375 1.9729 1.52491e+21 1.01406e-05 0.562908 0.842843 -0.90366 
0.018375 0.00553125 2.07318 1.39751e+21 9.29344e-06 2.23129 -4.73063 1.43615 
0.019125 0.00553125 1.90932 1.40774e+21 9.36148e-06 1.87691 1.95389 -4.62342 
0.019875 0.00534375 1.975 1.54397e+21 1.02674e-05 -1.73629 -4.89609 0.0858031 
0.020625 0.00534375 2.00425 1.51856e+21 1.00984e-05 3.09219 -3.3233 2.85995 
0.019875 0.00553125 1.93357 1.51209e+21 1.00554e-05 -0.799866 -1.00751 -1.01416 
0.020625 0.00553125 2.01014 1.45889e+21 9.70165e-06 -4.63759 0.261233 -2.8913 
0.018375 0.00721875 1.99596 1.49883e+21 9.96724e-06 1.48969 1.0704 2.54356 
0.018375 0.00740625 2.05215 1.48075e+21 9.84702e-06 -0.61678 -1.57967 1.29662 
0.022875 0.00684375 1.98167 1.53796e+21 1.02275e-05 1.24575 -4.08492 -2.05831 
0.023625 0.00684375 2.0276 1.48505e+21 9.87555e-06 1.92587 2.01304 0.117613 
0.022875 0.00703125 1.96611 1.45188e+21 9.65502e-06 1.92909 0.984977 0.298775 
0.021375 0.00721875 1.96579 1.48316e+21 9.86299e-06 1.27646 -0.286666 -5.2454 
0.022125 0.00721875 1.91589 1.56468e+21 1.04051e-05 1.41273 0.475246 -1.19804 
0.021375 0.00740625 2.02121 1.45325e+21 9.6641e-06 3.24968 -1.78969 -3.53902 
0.022125 0.00740625 2.04358 1.45936e+21 9.70475e-06 0.472324 -0.204402 -0.704883 
0.018375 0.00759375 1.93895 1.55448e+21 1.03373e-05 -2.88539 2.2885 2.13309 
0.019125 0.00759375 2.05953 1.43227e+21 9.52459e-06 2.02244 -0.225589 0.420816 
0.018375 0.00778125 2.03446 1.51993e+21 1.01076e-05 0.840815 -2.39116 1.76152 
0.022875 0.00759375 1.98748 1.51275e+21 1.00598e-05 -2.75654 -2.05251 1.71297 
0.023625 0.00759375 1.99035 1.50232e+21 9.99041e-06 1.90082 2.3617 -2.4805 
0.023625 0.00778125 1.95164 1.49375e+21 9.93345e-06 1.25028 1.85806 -2.5101 
0.022125 0.00815625 1.87566 1.49168e+21 9.91967e-06 0.0466866 1.16706 -1.17089 
0.019875 0.00890625 1.98635 1.51093e+21 1.00477e-05 1.26717 -4.75962 3.96666 
0.023625 0.00853125 2.04971 1.44468e+21 9.60715e-06 1.6138 -3.77772 0.377193 
0.023625 0.00909375 2.01796 1.45986e+21 9.7081e-06 3.56073 -1.39103 -0.346034 
0.018375 0.0173437 0 0 0 0 0 0 
0.018375 0.0175312 0 0 0 0 0 0 
0.022875 0.0216562 2.09162 1.53071e+21 1.01792e-05 1.88251 -4.02835 -5.14965 
0.023625 0.0216562 2.06618 1.38408e+21 9.20413e-06 4.02508 -1.88925 2.50122 
0.0294375 0.0169219 1.90233 1.4393e+21 9.57135e-06 -3.91474 -0.149854 -1.22091 
0.0298125 0.0169219 2.00897 1.47408e+21 9.80262e-06 -0.317225 0.119235 0.518506 
0.0294375 0.0170156 2.0585 1.47394e+21 9.80169e-06 1.82418 3.16989 -0.194431 
0.0298125 0.0170156 1.95752 1.42871e+21 9.50092e-06 -0.270899 -5.35326 2.21476 
0.0279375 0.0187969 1.93811 1.56547e+21 1.04104e-05 -1.36201 -2.48471 1.03514 
0.0283125 0.0187969 1.95048 1.37521e+21 9.14513e-06 3.34034 -6.04293 0.202482 
0.0279375 0.0188906 1.95137 1.44028e+21 9.57784e-06 -2.93848 1.226 -0.873904 
0.0283125 0.0188906 1.93489 1.43788e+21 9.5619e-06 -2.47166 3.77511 2.55482 
0.0286875 0.0191719 1.99499 1.45929e+21 9.70428e-06 1.86428 2.10881 2.25814 
0.0290625 0.0191719 2.02059 1.51832e+21 1.00968e-05 0.496543 3.1753 2.57008 
0.0286875 0.0192656 2.00319 1.40049e+21 9.31327e-06 -3.38195 3.15659 -0.0597687 
0.0290625 0.0192656 2.04156 1.39814e+21 9.29765e-06 4.00014 -4.58391 4.98823 
0.0256875 0.0197344 2.0896 1.43146e+21 9.5192e-06 3.11626 -1.57452 4.82188 
0.0260625 0.0197344 2.00832 1.43146e+21 9.5192e-06 1.56071 -3.82284 -2.85672 
0.0256875 0.0198281 1.97141 1.52058e+21 1.01119e-05 2.20433 -2.15958 0.0428678 
0.0260625 0.0198281 2.0303 1.5046e+21 1.00056e-05 5.81404 -1.1626 -2.89967 
0.0256875 0.0210469 2.04484 1.4777e+21 9.82671e-06 -0.908772 1.73775 0.709876 
0.0260625 0.0210469 2.02879 1.56589e+21 1.04132e-05 -2.09542 1.99632 -1.24568 
0.0256875 0.0211406 1.91932 1.43046e+21 9.51257e-06 1.76218 -4.39693 -2.91771 
0.0260625 0.0211406 2.01483 1.59749e+21 1.06233e-05 -0.885928 -0.943402 1.71257 
0.0084375 0.0120469 1.8949 1.61213e+21 1.07207e-05 8.66293 3.90705 2.98212 
0.0088125 0.0120469 2.02991 1.69105e+21 1.12455e-05 6.20297 1.62724 -2.06907 
0.0084375 0.0121406 2.11258 1.58104e+21 1.05139e-05 6.23709 0.945196 -4.96719 
0.0088125 0.0121406 2.02669 1.82341e+21 1.21257e-05 5.40208 5.66047 -2.19317 
0.0196875 0.0178594 2.00021 1.39416e+21 9.27119e-06 -5.30912 -2.32626 2.96719 
0.0200625 0.0178594 2.09542 1.36121e+21 9.05206e-06 -1.39167 0.448398 0.0112259 
0.0196875 0.0179531 1.90223 1.59366e+21 1.05978e-05 3.16788 -2.10181 -2.62939 
0.0200625 0.0179531 2.0595 1.49531e+21 9.94383e-06 1.40841 -0.245802 1.84832 
0.0219375 0.0174844 1.86146 1.35416e+21 9.00515e-06 2.34429 1.08378 1.79669 
0.0223125 0.0174844 2.11765 1.4396e+21 9.57335e-06 -1.99373 2.07245 -1.43883 
0.0219375 0.0175781 1.94291 1.56069e+21 1.03786e-05 3.81332 -0.146125 -0.53842 
0.0223125 0.0175781 1.99276 1.38042e+21 9.17976e-06 2.44012 -0.843963 0.592168 
0.0219375 0.0176719 2.05354 1.45763e+21 9.69324e-06 -0.542684 2.66751 -1.14513 
0.0223125 0.0176719 2.07739 1.42945e+21 9.50585e-06 -1.20314 3.13031 2.17127 
0.0219375 0.0177656 1.94875 1.46778e+21 9.76071e-06 0.00266456 3.10602 2.04882 
0.0223125 0.0177656 2.07375 1.53403e+21 1.02013e-05 0.950343 2.92243 -3.26573 
0.0234375 0.0180469 1.9198 1.42483e+21 9.47514e-06 5.1338 -1.05273 -2.03521 
0.0238125 0.0180469 2.08738 1.41982e+21 9.44178e-06 3.88628 1.22257 5.59125 
0.0234375 0.0181406 1.95558 1.38752e+21 9.22703e-06 0.920504 1.05856 1.71898 
0.0238125 0.0181406 2.14881 1.55472e+21 1.03389e-05 -1.84388 -1.49686 0.713616 
0.0234375 0.0182344 1.94282 1.40522e+21 9.34469e-06 0.0908141 -1.1793 -4.44679 
0.0238125 0.0182344 1.91628 1.46728e+21 9.75744e-06 2.46274 -3.28708 0.32912 
0.0234375 0.0183281 1.97466 1.40297e+21 9.32974e-06 -4.2029 1.70704 -0.67881 
0.0238125 0.0183281 1.98219 1.4252e+21 9.47757e-06 -0.24767 -0.966063 0.0018264 
0.0204375 0.0189844 1.94341 1.48801e+21 9.89527e-06 -3.02864 -1.64173 3.90017 
0.0208125 0.0189844 2.05069 1.48324e+21 9.86355e-06 -4.2715 -2.60347 -3.61805 
0.0204375 0.0190781 2.00533 1.46883e+21 9.76774e-06 -1.85452 -1.19364 2.25717 
0.0208125 0.0190781 2.01288 1.46171e+21 9.7204e-06 -1.71879 -3.18664 1.99637 
0.0196875 0.0201094 1.97326 1.44979e+21 9.6411e-06 0.688339 -4.10304 -1.0736 
0.0200625 0.0201094 2.05642 1.50382e+21 1.00004e-05 3.97833 5.86084 2.40455 
0.0196875 0.0202031 1.94831 1.46099e+21 9.71557e-06 2.89047 5.14801 5.91799 
0.0200625 0.0202031 2.00781 1.44306e+21 9.59636e-06 -4.27051 -1.189 -2.03387 
0.0196875 0.0210469 1.98428 1.482e+21 9.85532e-06 -2.04589 -0.0317345 2.54183 
0.0200625 0.0210469 2.16739 1.3508e+21 8.98279e-06 0.875477 1.03306 0.101597 
0.0196875 0.0211406 1.93811 1.43046e+21 9.51257e-06 1.17732 1.75508 -1.5277 
0.0200625 0.0211406 2.06009 1.4947e+21 9.93978e-06 5.85673 1.54115 -0.931228 
0.01125 0.0061875 0 0 0 0 0 0 
0.01125 0.0065625 0 0 0 0 0 0 
0.02175 0.0016875 2.02883 1.47381e+21 9.80086e-06 1.94179 -0.770643 -0.910347 
0.02325 0.0016875 1.95153 1.48387e+21 9.86776e-06 1.6677 -1.73742 -5.85794 
0.024375 0.00421875 1.94582 1.51305e+21 1.00618e-05 -1.15553 -3.45167 -1.88136 
0.025125 0.00421875 1.97983 1.49695e+21 9.95473e-06 -4.43165 -0.982254 1.91786 
0.024375 0.00440625 2.02624 1.54627e+21 1.02827e-05 3.15656 2.44141 1.38609 
0.025125 0.00440625 1.88081 1.53343e+21 1.01973e-05 4.4741 0.950544 -2.37219 
0.024375 0.00534375 1.87764 1.45502e+21 9.67587e-06 -0.283406 -5.1369 3.92864 
0.025125 0.00534375 1.98154 1.56515e+21 1.04082e-05 2.75717 -0.0395996 0.704489 
0.024375 0.00553125 1.90916 1.49572e+21 9.94657e-06 1.95968 0.211716 -2.2312 
0.025125 0.00553125 2.01285 1.41593e+21 9.4159e-06 1.74572 0.956675 2.755 
0.025875 0.00571875 2.04014 1.51793e+21 1.00942e-05 5.3894 -2.03511 -2.36244 
0.026625 0.00571875 1.92539 1.42492e+21 9.47569e-06 -0.132527 1.60677 3.16878 
0.025875 0.00590625 2.01922 1.49465e+21 9.93944e-06 0.754518 5.30982 -1.17943 
0.026625 0.00590625 2.06558 1.42375e+21 9.46796e-06 1.92383 4.64843 -0.839075 
0.028875 0.00571875 1.90643 1.42492e+21 9.47569e-06 -2.21691 -2.91812 -1.09239 
0.029625 0.00571875 2.00896 1.34971e+21 8.97558e-06 -0.745516 -0.0171085 0.302931 
0.028875 0.00590625 1.97208 1.50615e+21 1.00159e-05 4.03481 -1.79682 1.5965 
0.029625 0.00590625 2.02716 1.34136e+21 8.92001e-06 3.82501 1.70839 1.81277 
0.027375 0.00609375 2.01637 1.47838e+21 9.83123e-06 -0.352534 1.00685 -2.63181 
0.027375 0.00628125 2.13857 1.43965e+21 9.5737e-06 0.467326 2.91947 1.23859 
0.028125 0.00628125 2.0394 1.49191e+21 9.92118e-06 2.54565 -3.49461 4.25624 
0.028875 0.00609375 1.97318 1.53224e+21 1.01894e-05 -0.235171 0.0339763 -2.80765 
0.029625 0.00609375 1.94552 1.45424e+21 9.67067e-06 -2.83106 -0.117177 2.70429 
0.028875 0.00628125 1.89557 1.47209e+21 9.78938e-06 1.71519 0.530911 -0.49018 
0.029625 0.00628125 2.03042 1.46848e+21 9.76542e-06 0.983271 -1.10915 -2.33417 
0.024375 0.00721875 1.98534 1.62269e+21 1.07909e-05 4.27444 -0.612154 -1.1136 
0.025125 0.00721875 2.06732 1.4565e+21 9.68574e-06 2.90114 2.22008 -2.94361 
0.024375 0.00740625 1.97636 1.46394e+21 9.73523e-06 3.72992 3.33345 -0.434959 
0.007875 0.00196875 1.92409 2.32246e+21 1.54444e-05 14.5659 17.6073 0.927123 
0.008625 0.00196875 2.01595 2.46618e+21 1.64001e-05 8.6029 16.8688 -0.00433559 
0.007875 0.00215625 1.86264 2.173e+21 1.44504e-05 13.4818 16.4605 1.55263 
0.008625 0.00215625 1.98413 2.39344e+21 1.59164e-05 2.90343 13.5279 6.36368 
0.006375 0.00271875 1.92077 2.14646e+21 1.42739e-05 0.264398 6.7403 0.432836 
0.007125 0.00271875 1.99586 2.0606e+21 1.3703e-05 -8.12182 6.88728 0.166756 
0.006375 0.00290625 1.95557 2.02988e+21 1.34987e-05 -8.74308 10.3792 0.067628 
0.007125 0.00290625 2.07233 2.23141e+21 1.48389e-05 2.87589 10.229 -3.3664 
0.006375 0.00421875 1.95669 2.09251e+21 1.39152e-05 2.96043 1.82795 5.06542 
0.007125 0.00421875 2.0823 2.04423e+21 1.35941e-05 -2.12024 6.14606 0.508611 