ITEM: TIMESTEP
500000
ITEM: NUMBER OF CELLS
35222
ITEM: BOX BOUNDS oo ao pp
0 0.35
0 0.03
-0.1 0.1
ITEM: CELLS xc yc f_out[1] f_out[2] f_out[3] f_out[4] f_out[5] f_out[6] 
0.00875 0.01575 0 0 0 0 0 0 
0.00875 0.01875 0 0 0 0 0 0 
0.00875 0.02175 0 0 0 0 0 0 
0.00875 0.02475 0 0 0 0 0 0 
0.00875 0.02775 0 0 0 0 0 0 
0.02625 0.02475 0 0 0 0 0 0 
0.02625 0.02775 0 0 0 0 0 0 
0.00875 0.01425 0 0 0 0 0 0 
0.00875 0.01725 0 0 0 0 0 0 
0.00875 0.02025 0 0 0 0 0 0 
0.00875 0.02325 0 0 0 0 0 0 
0.00875 0.02625 0 0 0 0 0 0 
0.00875 0.02925 0 2.07284e+15 1.37844e-11 -97.6808 6.02757 2.83052 
0.02625 0.02325 0 0 0 0 0 0 
0.02625 0.02625 0 0 0 0 0 0 
0.02625 0.02925 0.0481575 4.14567e+15 2.75687e-11 -70.7108 7.86989 2.67599 
0.04375 0.02325 0 0 0 0 0 0 
0.04375 0.02625 0 0 0 0 0 0 
0.04375 0.02925 0.30448 4.76752e+16 3.1704e-10 -99.4745 18.0892 1.00665 
0.004375 0.013125 0 0 0 0 0 0 
0.013125 0.013125 0 0 0 0 0 0 
0.021875 0.022125 0 0 0 0 0 0 
0.030625 0.022125 0 0 0 0 0 0 
0.0021875 0.0001875 1.9131 1.28236e+22 8.52766e-05 30.3591 -2.3618 2.5634 
0.0109375 0.0009375 2.11023 5.38606e+21 3.58173e-05 7.27972 10.0853 1.06988 
0.0109375 0.0009375 1.95226 2.38603e+21 1.58671e-05 -4.35049 7.30131 -5.55698 
0.0021875 0.0031875 0 0 0 0 0 0 
0.0021875 0.0035625 0 0 0 0 0 0 
0.0021875 0.0039375 0 0 0 0 0 0 
0.0021875 0.0043125 0 0 0 0 0 0 
0.0021875 0.0061875 0 0 0 0 0 0 
0.0021875 0.0065625 0 0 0 0 0 0 
0.0021875 0.0069375 0 0 0 0 0 0 
0.0021875 0.0073125 0 0 0 0 0 0 
0.0021875 0.0091875 0 0 0 0 0 0 
0.0021875 0.0095625 0 0 0 0 0 0 
0.0021875 0.0099375 0 0 0 0 0 0 
0.0021875 0.0103125 0 0 0 0 0 0 
0.0021875 0.0121875 0 0 0 0 0 0 
0.0021875 0.0125625 0 0 0 0 0 0 
0.0021875 0.0020625 0 0 0 0 0 0 
0.0021875 0.0024375 0 0 0 0 0 0 
0.0021875 0.0028125 0 0 0 0 0 0 
0.0021875 0.0046875 0 0 0 0 0 0 
0.0021875 0.0050625 0 0 0 0 0 0 
0.0021875 0.0054375 0 0 0 0 0 0 
0.0021875 0.0058125 0 0 0 0 0 0 
0.0021875 0.0076875 0 0 0 0 0 0 
0.0021875 0.0080625 0 0 0 0 0 0 
0.0021875 0.0084375 0 0 0 0 0 0 
0.0021875 0.0088125 0 0 0 0 0 0 
0.0021875 0.0106875 0 0 0 0 0 0 
0.0021875 0.0110625 0 0 0 0 0 0 
0.0021875 0.0114375 0 0 0 0 0 0 
0.0021875 0.0118125 0 0 0 0 0 0 
0.0284375 0.0001875 1.94379 2.64898e+21 1.76158e-05 -2.3943 -1.24295 -3.16715 
0.0328125 0.0001875 2.08484 2.40064e+21 1.59643e-05 -3.99394 1.63802 1.76669 
0.00109375 0.00046875 0 0 0 0 0 0 
0.00328125 0.00046875 1.91836 1.24258e+22 8.26314e-05 27.4553 -0.111345 -2.12213 
0.00109375 0.00065625 0 0 0 0 0 0 
0.00765625 0.00046875 1.79838 5.24002e+21 3.48462e-05 44.8434 3.77019 -1.12794 
0.00765625 0.00065625 1.82448 4.97867e+21 3.31082e-05 41.6375 11.8286 5.0923 
0.00109375 0.00084375 0 0 0 0 0 0 
0.00109375 0.00103125 0 0 0 0 0 0 
0.00109375 0.00121875 0 0 0 0 0 0 
0.00109375 0.00140625 0 0 0 0 0 0 
0.0142187 0.00121875 2.01447 2.33697e+21 1.55408e-05 -3.13815 2.19822 -1.03995 
0.0164062 0.00121875 1.87702 2.49934e+21 1.66206e-05 -1.23885 -4.13076 4.05757 
0.0142187 0.00140625 1.94965 2.40892e+21 1.60193e-05 0.621266 1.28042 -4.48171 
0.00546875 0.00309375 1.87624 3.09875e+21 2.06067e-05 -4.21251 6.17606 0.658766 
0.00546875 0.00328125 1.86087 3.11645e+21 2.07244e-05 -7.21823 6.91015 -6.70582 
0.00546875 0.00346875 1.93536 3.23589e+21 2.15186e-05 7.70608 1.7572 2.87979 
0.00546875 0.00365625 1.96282 3.32122e+21 2.20861e-05 1.61089 1.08727 -4.53362 
0.0120312 0.00309375 2.05084 2.42735e+21 1.61419e-05 3.69908 -1.96658 -0.649439 
0.00984375 0.00328125 1.97006 3.82065e+21 2.54073e-05 -0.453861 8.04985 -0.492592 
0.0120312 0.00328125 2.06582 2.25821e+21 1.50171e-05 5.27142 -0.512354 -0.819523 
0.00546875 0.00384375 1.92297 3.74117e+21 2.48788e-05 0.76361 8.86632 3.08797 
0.00546875 0.00403125 1.78553 3.12127e+21 2.07564e-05 -2.60182 7.0188 -2.65313 
0.00546875 0.00421875 1.88501 3.18138e+21 2.11562e-05 -2.07042 3.26796 4.32828 
0.00546875 0.00440625 1.83698 3.44488e+21 2.29085e-05 3.20496 3.42747 -2.0008 
0.0120312 0.00384375 2.00595 2.42656e+21 1.61366e-05 4.24775 -2.90461 -1.17363 
0.0120312 0.00403125 2.02568 2.28893e+21 1.52214e-05 1.38208 -0.729171 2.72805 
0.0120312 0.00421875 1.97347 2.3813e+21 1.58356e-05 -2.20248 -3.95148 3.1977 
0.0120312 0.00440625 1.90546 2.41142e+21 1.60359e-05 -2.08548 0.733953 4.43173 
0.00546875 0.00609375 2.04337 3.10709e+21 2.06621e-05 3.09474 3.96536 -6.87971 
0.00546875 0.00628125 1.96762 3.09065e+21 2.05528e-05 3.41554 3.89537 -4.68477 
0.00546875 0.00646875 1.95855 3.06282e+21 2.03677e-05 3.79279 3.30693 1.30125 
0.00546875 0.00665625 2.03468 3.07856e+21 2.04724e-05 0.956921 3.52934 6.77377 
0.0120312 0.00609375 2.03366 2.58596e+21 1.71967e-05 5.059 2.01552 1.04076 
0.0120312 0.00628125 1.98962 2.47061e+21 1.64296e-05 -0.0614645 -1.83016 1.11017 
0.0120312 0.00646875 1.94679 2.44531e+21 1.62613e-05 -3.32065 -3.2643 -2.60716 
0.00546875 0.00684375 2.03498 3.28021e+21 2.18134e-05 1.37875 -2.50061 -4.5219 
0.00546875 0.00703125 2.0214 3.14729e+21 2.09295e-05 -1.81241 6.89227 -1.86504 
0.00546875 0.00721875 2.04142 2.82761e+21 1.88036e-05 1.33159 5.17167 -1.9114 
0.00546875 0.00740625 2.01702 3.19288e+21 2.12327e-05 -2.68832 3.64345 -4.51009 
0.0120312 0.00684375 1.92394 2.59732e+21 1.72722e-05 -0.212099 -4.21552 -1.51656 
0.0120312 0.00703125 1.93743 2.47125e+21 1.64338e-05 -0.894989 -0.335224 -0.452752 
0.0120312 0.00721875 1.98132 2.50113e+21 1.66325e-05 1.48157 0.821768 0.0324356 
0.0120312 0.00740625 1.90599 2.34612e+21 1.56017e-05 2.69081 -3.81016 -0.262803 
0.00546875 0.00909375 2.05549 2.8332e+21 1.88408e-05 -0.992287 -1.98484 6.33933 
0.00546875 0.00928125 1.90223 2.85773e+21 1.90039e-05 -2.70074 5.24265 4.12176 
0.00546875 0.00946875 1.93075 2.83067e+21 1.8824e-05 3.92216 1.91889 2.76816 
0.00546875 0.00965625 2.02381 2.80467e+21 1.8651e-05 -3.52669 4.75114 4.81152 
0.0120312 0.00928125 1.94875 2.52419e+21 1.67858e-05 1.26555 -3.15018 0.0977003 
0.00546875 0.00984375 1.98065 2.88921e+21 1.92133e-05 2.70048 5.78035 0.00556754 
0.00546875 0.0100312 1.97876 3.11395e+21 2.07078e-05 -0.300976 -1.06189 0.430729 
0.00546875 0.0102187 2.02084 2.84182e+21 1.88981e-05 0.10118 4.61232 0.932768 
0.00546875 0.0104062 2.06915 2.77142e+21 1.843e-05 -2.5208 5.007 0.407822 
0.00546875 0.0120938 1.92152 2.85373e+21 1.89773e-05 0.53655 -3.02951 -3.25565 
0.00546875 0.0122813 2.02031 2.86545e+21 1.90553e-05 3.69298 2.70995 0.635522 
0.00546875 0.0124688 1.95111 2.80314e+21 1.86409e-05 0.158741 -1.76506 2.58292 
0.00546875 0.0126563 2.13782 2.87201e+21 1.90989e-05 1.30637 2.15302 -0.0874039 
0.0185937 0.0216562 1.94597 2.6129e+21 1.73758e-05 2.55649 3.75961 -0.890456 
0.00546875 0.00178125 2.00645 3.45347e+21 2.29656e-05 3.82054 22.8755 9.34717 
0.00546875 0.00196875 1.97871 2.65791e+21 1.76751e-05 2.55497 4.92694 -0.0702264 
0.00546875 0.00215625 2.06793 2.96402e+21 1.97107e-05 -0.412403 5.5496 -6.77866 
0.00546875 0.00234375 2.08171 3.01663e+21 2.00606e-05 3.05975 2.25318 -1.19702 
0.00546875 0.00253125 2.16141 3.18769e+21 2.11981e-05 5.15015 1.62083 3.80507 
0.00546875 0.00271875 1.81032 3.02662e+21 2.0127e-05 0.375745 -4.2791 -5.11968 
0.00546875 0.00290625 2.09748 3.25743e+21 2.16619e-05 -1.27574 -0.950418 2.6636 
0.00984375 0.00271875 1.88233 3.75855e+21 2.49944e-05 -0.986092 15.1535 -0.97086 
0.0120312 0.00271875 1.97354 2.4022e+21 1.59746e-05 -3.97736 -0.0936766 2.6408 
0.0120312 0.00290625 2.09678 2.59083e+21 1.7229e-05 2.2401 -1.23523 4.56554 
0.00546875 0.00459375 2.05856 3.53036e+21 2.34769e-05 2.90534 0.528764 -0.272875 
0.00546875 0.00478125 2.02079 3.25824e+21 2.16673e-05 2.47398 3.10573 1.3493 
0.00546875 0.00496875 1.94455 3.17548e+21 2.1117e-05 3.21606 2.88264 -1.188 
0.00546875 0.00515625 1.94893 3.36214e+21 2.23582e-05 -1.33723 5.60261 1.27824 
0.0120312 0.00459375 2.06451 2.53907e+21 1.68848e-05 0.748379 0.352332 5.44668 
0.0120312 0.00478125 1.90279 2.43533e+21 1.61949e-05 -0.930119 -0.844619 0.0571081 
0.0120312 0.00496875 1.97878 2.33539e+21 1.55303e-05 -2.15802 1.54631 1.9085 
0.0120312 0.00515625 2.05974 2.26983e+21 1.50944e-05 0.493351 -0.524603 1.87754 
0.00546875 0.00534375 2.04879 3.22174e+21 2.14246e-05 2.129 10.138 -3.60835 
0.00546875 0.00553125 2.04174 3.19197e+21 2.12266e-05 -1.57168 4.76827 -5.99024 
0.00546875 0.00571875 1.94122 3.12923e+21 2.08093e-05 -0.890243 3.1944 -0.112638 
0.00546875 0.00590625 1.8907 2.81346e+21 1.87095e-05 -1.67382 5.22361 0.963829 
0.0120312 0.00534375 2.0259 2.57142e+21 1.70999e-05 -2.92151 -1.97161 -0.945359 
0.0120312 0.00553125 1.99144 2.37592e+21 1.57999e-05 -0.0716962 0.400453 0.6513 
0.0120312 0.00571875 1.94129 2.40629e+21 1.60018e-05 -5.57419 3.29056 -1.87699 
0.0120312 0.00590625 2.0488 2.46178e+21 1.63708e-05 1.41723 -1.11088 -0.772796 
0.00546875 0.00759375 1.91227 2.99306e+21 1.99039e-05 -1.0955 1.3936 2.23363 
0.00546875 0.00778125 1.98879 3.00821e+21 2.00046e-05 -1.38444 6.61027 1.11067 
0.00546875 0.00796875 1.90698 3.38356e+21 2.25007e-05 0.917372 4.18164 0.714365 
0.00546875 0.00815625 2.02645 3.11967e+21 2.07458e-05 -2.30721 2.06742 2.63648 
0.0120312 0.00778125 1.92992 2.47946e+21 1.64884e-05 0.913972 -0.123212 -0.497936 
0.0120312 0.00815625 1.95926 2.46586e+21 1.6398e-05 -0.296939 -2.55311 0.466371 
0.00546875 0.00834375 1.92858 2.91552e+21 1.93882e-05 -3.83878 8.37894 1.1149 
0.00546875 0.00853125 2.06451 2.98254e+21 1.98339e-05 -2.61607 1.704 0.602641 
0.00546875 0.00871875 1.94762 3.01461e+21 2.00472e-05 -0.256627 5.60076 -0.020306 
0.00546875 0.00890625 2.01874 2.86593e+21 1.90584e-05 -1.70375 3.48535 -2.1108 
0.0120312 0.00834375 1.93624 2.37454e+21 1.57907e-05 0.545533 0.0394197 -0.738414 
0.0120312 0.00853125 2.00689 2.4558e+21 1.63311e-05 0.747438 -6.29983 -0.637349 
0.00546875 0.0105937 1.97023 2.95992e+21 1.96835e-05 -0.167086 2.63582 0.316962 
0.00546875 0.0107812 1.967 2.90103e+21 1.92919e-05 1.2601 3.52272 -2.94085 
0.00546875 0.0109687 2.13153 2.69485e+21 1.79207e-05 -1.59246 0.750951 -2.08549 
0.00546875 0.0111562 1.95787 2.86081e+21 1.90244e-05 -5.59106 3.8161 0.601994 
0.00546875 0.0113437 1.99802 2.90155e+21 1.92953e-05 4.54272 -0.39618 -2.22379 
0.00546875 0.0115312 2.08476 2.91673e+21 1.93962e-05 -2.00779 -1.36455 -2.40032 
0.00546875 0.0117188 1.89985 2.94505e+21 1.95846e-05 0.73883 1.49131 -0.55868 
0.00546875 0.0119063 2.00385 2.93222e+21 1.94993e-05 -1.64587 -0.971897 2.64208 
0.0317187 0.00159375 2.02543 2.46638e+21 1.64014e-05 4.38043 2.52717 -1.41639 
0.0109375 0.0001875 2.06638 5.33963e+21 3.55085e-05 10.3641 -5.23119 6.5273 
0.0109375 0.0001875 1.60765 2.39669e+21 1.5938e-05 0.742992 16.1565 -20.815 
0.0153125 0.0001875 1.91896 2.10574e+21 1.40031e-05 2.0163 -4.86284 -2.02733 
0.0109375 0.0005625 1.91303 5.53309e+21 3.67951e-05 9.76905 4.7257 -0.487579 
0.0109375 0.0005625 2.06518 2.37893e+21 1.58199e-05 -5.04182 2.28499 1.29434 
0.0196875 0.0001875 2.11868 2.49894e+21 1.6618e-05 6.11273 0.0475717 5.65919 
0.0240625 0.0001875 1.93377 2.38512e+21 1.58611e-05 2.01832 -3.74087 1.72025 
0.0120312 0.00346875 2.07484 2.28009e+21 1.51626e-05 4.24734 -3.03193 1.43461 
0.0120312 0.00365625 2.09025 2.58924e+21 1.72184e-05 -0.685592 1.08464 -0.176198 
0.0142187 0.00159375 2.0525 2.52968e+21 1.68224e-05 0.0199055 -0.840359 4.27603 
0.0164062 0.00159375 1.9653 2.44447e+21 1.62557e-05 6.29494 -0.805977 2.16323 
0.00984375 0.00234375 1.8804 4.15098e+21 2.7604e-05 -0.492205 17.889 0.959477 
0.0120312 0.00234375 2.08074 2.59055e+21 1.72272e-05 -0.112982 4.65083 2.36301 
0.0120312 0.00253125 1.81745 2.6906e+21 1.78925e-05 2.45582 3.22974 -1.32963 
0.0207812 0.00159375 1.99924 2.43716e+21 1.62071e-05 -0.484819 -2.21463 -1.86354 
0.0251562 0.00159375 1.90351 2.47855e+21 1.64824e-05 1.81441 -3.20543 0.30888 
0.0295312 0.00159375 1.93603 2.41282e+21 1.60452e-05 4.30039 0.415798 1.58419 
0.0360937 0.00159375 2.01312 2.38847e+21 1.58833e-05 3.23475 1.57784 0.950566 
0.0360937 0.00178125 1.97741 2.3244e+21 1.54572e-05 4.20136 -0.632235 0.191097 
0.0382812 0.00178125 1.95896 2.42461e+21 1.61236e-05 5.29283 0.254058 2.7463 
0.0404687 0.00178125 2.02228 2.45728e+21 1.63409e-05 3.19001 -0.0854917 -1.60733 
0.0426562 0.00178125 2.01627 2.51828e+21 1.67466e-05 2.98269 -2.08527 2.10367 
0.0404687 0.00196875 2.01645 2.32969e+21 1.54924e-05 1.22739 -1.117 -1.31221 
0.0492187 0.00159375 2.09738 2.47125e+21 1.64338e-05 3.29051 -0.929357 0.129796 
0.0514062 0.00159375 1.92788 2.47855e+21 1.64824e-05 3.25738 1.58489 3.09605 
0.00492187 0.000609375 1.82705 1.11818e+22 7.43588e-05 43.2769 -6.69104 -2.79887 
0.00601562 0.000609375 1.72667 8.55826e+21 5.69124e-05 48.2397 4.65172 5.24443 
0.00492187 0.000703125 1.77495 1.11037e+22 7.38394e-05 35.005 1.84383 0.561038 
0.00601562 0.000703125 1.74648 9.02862e+21 6.00403e-05 51.6569 2.9194 -2.33881 
0.00273437 0.000984375 2.00703 1.29451e+22 8.60852e-05 25.8781 -5.25345 3.97386 
0.00382812 0.000984375 1.93374 1.29296e+22 8.59816e-05 26.347 -4.27304 1.82448 
0.00273437 0.00107813 1.99694 1.1664e+22 7.75653e-05 17.5622 -4.12605 2.12757 
0.00492187 0.000796875 1.95247 1.19399e+22 7.94004e-05 36.4658 -3.09894 -2.35773 
0.00601562 0.000796875 1.71301 8.39495e+21 5.58264e-05 47.7898 1.51666 0.684449 
0.00492187 0.000890625 1.92987 1.12233e+22 7.46352e-05 38.5738 1.16 -3.4844 
0.00601562 0.000890625 1.83796 8.2258e+21 5.47015e-05 47.4368 1.43117 1.66698 
0.00492187 0.000984375 1.90477 1.04383e+22 6.94144e-05 35.0763 -0.70432 4.7113 
0.00601562 0.000984375 1.80946 8.59343e+21 5.71463e-05 36.766 6.64169 -0.0633232 
0.00492187 0.00107813 1.86508 1.01209e+22 6.73037e-05 32.1344 -2.1372 -3.37165 
0.00601562 0.00107813 1.85568 8.36446e+21 5.56236e-05 46.188 7.06376 0.671301 
0.00273437 0.00117188 1.81209 1.30201e+22 8.65836e-05 14.6038 -5.37304 -11.0056 
0.00273437 0.00126563 1.85903 1.49702e+22 9.95517e-05 37.2709 -5.24292 -13.4266 
0.00273437 0.00135937 2.11464 1.49245e+22 9.9248e-05 28.6363 4.5172 4.94697 
0.00273437 0.00145312 1.98873 1.32693e+22 8.8241e-05 22.6054 3.44866 -9.57266 
0.00492187 0.00117188 1.83237 1.07019e+22 7.11676e-05 30.9268 1.69626 3.6922 
0.00601562 0.00117188 1.91325 7.64232e+21 5.08214e-05 39.1823 5.61136 1.7209 
0.00492187 0.00126563 1.92081 1.03384e+22 6.87504e-05 26.2935 -2.61839 -1.93222 
0.00601562 0.00126563 1.76068 8.09412e+21 5.38259e-05 38.5697 3.36951 -0.109937 
0.00710937 0.00117188 1.80264 4.96685e+21 3.30295e-05 43.5416 12.3349 1.41735 
0.00820312 0.00117188 1.90143 4.70195e+21 3.1268e-05 29.8423 17.0245 5.15757 
0.00710937 0.00126563 1.85699 5.37155e+21 3.57208e-05 42.5529 13.3649 0.115339 
0.00820312 0.00126563 1.9644 4.37818e+21 2.91149e-05 24.1729 19.3825 1.01597 
0.00601562 0.00135937 1.93878 8.24382e+21 5.48214e-05 31.4504 1.69534 2.01477 
0.00601562 0.00145312 1.96844 7.95764e+21 5.29183e-05 29.6508 3.91066 -2.01048 
0.00710937 0.00342187 1.98527 3.21598e+21 2.13862e-05 0.737223 10.0318 0.902195 
0.00820312 0.00342187 1.86605 3.52896e+21 2.34676e-05 -1.47327 17.4919 5.24727 
0.00710937 0.00351562 1.88093 3.23176e+21 2.14912e-05 -4.09136 9.89274 2.76536 
0.00820312 0.00351562 1.96707 3.45693e+21 2.29886e-05 1.31578 11.1896 -4.11042 
0.00710937 0.00360937 1.92675 3.30693e+21 2.19911e-05 -4.61865 8.65958 3.62186 
0.00820312 0.00360937 2.09189 3.54775e+21 2.35925e-05 -0.995402 12.6479 3.51812 
0.00710937 0.00370312 2.00297 3.2274e+21 2.14622e-05 -0.118675 13.0406 -2.06914 
0.00820312 0.00370312 1.93309 3.35315e+21 2.22984e-05 2.28548 14.8819 0.378644 
0.0158594 0.00342187 1.93371 2.49476e+21 1.65902e-05 2.2665 -1.43815 -0.164463 
0.0169531 0.00342187 1.94973 2.51291e+21 1.67108e-05 -2.0168 1.55008 4.35311 
0.0158594 0.00351562 2.01091 2.31345e+21 1.53844e-05 4.14165 -1.90047 -3.35189 
0.0169531 0.00351562 2.12137 2.33994e+21 1.55606e-05 3.25068 -0.469504 -0.637649 
0.0136719 0.00360937 1.94823 2.30926e+21 1.53566e-05 -1.97695 1.16907 -1.17347 
0.0147656 0.00360937 1.89713 2.54148e+21 1.69008e-05 4.75103 4.36935 -0.628026 
0.0136719 0.00370312 2.01176 2.61545e+21 1.73928e-05 0.349768 2.10864 -1.29939 
0.0147656 0.00370312 1.96634 2.51486e+21 1.67238e-05 1.2608 -2.44683 -1.30591 
0.00710937 0.00379687 2.01519 3.35211e+21 2.22915e-05 2.25346 9.1872 -0.26363 
0.00710937 0.00389062 1.90214 3.34315e+21 2.22319e-05 -3.2679 10.5059 -1.55376 
0.00710937 0.00398438 1.96464 3.40083e+21 2.26155e-05 0.684743 3.31485 -0.262554 
0.00820312 0.00398438 2.03829 3.24111e+21 2.15534e-05 -1.19326 12.9518 2.01493 
0.00710937 0.00407813 1.88572 3.30743e+21 2.19944e-05 5.74564 9.01075 1.38251 
0.00820312 0.00417188 1.91479 3.43773e+21 2.28609e-05 -2.74881 9.54306 -4.55443 
0.00710937 0.00426563 2.00358 3.31487e+21 2.20439e-05 -3.14169 8.34371 3.17225 
0.00820312 0.00426563 2.01319 3.48589e+21 2.31812e-05 -5.02167 10.7448 2.14643 
0.00820312 0.00435938 1.90904 3.46433e+21 2.30378e-05 -0.451527 9.69731 -2.20832 
0.0136719 0.00417188 1.96068 2.44808e+21 1.62797e-05 1.2555 1.14594 -1.15691 
0.0147656 0.00417188 2.0979 2.55225e+21 1.69725e-05 1.90394 -2.1998 0.80957 
0.0136719 0.00426563 1.94572 2.40155e+21 1.59703e-05 3.85901 -0.12051 -1.53068 
0.0147656 0.00426563 1.97623 2.46341e+21 1.63817e-05 1.27614 -0.810838 4.48869 
0.0158594 0.00435938 2.03096 2.50301e+21 1.6645e-05 1.5295 0.949577 -5.96035 
0.0169531 0.00435938 1.97382 2.43536e+21 1.61951e-05 0.400081 -0.590575 1.83224 
0.0158594 0.00445313 2.02605 2.50608e+21 1.66654e-05 2.16677 2.92678 1.64111 
0.0169531 0.00445313 1.95593 2.43637e+21 1.62019e-05 0.951152 -2.31309 -5.07333 
0.0158594 0.00604688 2.08358 2.67465e+21 1.77864e-05 6.6224 -0.0320054 1.03298 
0.0169531 0.00604688 1.92629 2.51294e+21 1.67111e-05 2.19243 -3.67527 -4.21393 
0.0136719 0.00623438 1.90804 2.54691e+21 1.69369e-05 0.512163 -0.454819 -3.56256 
0.0147656 0.00623438 2.02923 2.58674e+21 1.72018e-05 -1.40278 4.6487 -1.51096 
0.0136719 0.00632813 1.97163 2.45522e+21 1.63272e-05 0.303569 0.595385 1.77468 
0.0158594 0.00632813 2.01761 2.38163e+21 1.58379e-05 3.80588 1.71933 2.85741 
0.0169531 0.00632813 1.99665 2.53861e+21 1.68818e-05 2.3257 -0.23056 3.15247 
0.00929687 0.00660938 2.02689 3.03616e+21 2.01905e-05 -1.29314 5.10035 -0.472564 
0.0103906 0.00660938 0 0 0 0 0 0 
0.00929687 0.00670313 2.03284 3.1528e+21 2.09661e-05 -2.52387 7.73897 1.54292 
0.0103906 0.00670313 0 0 0 0 0 0 
0.0158594 0.00651563 2.02647 2.44412e+21 1.62534e-05 2.58579 -7.32456 3.52661 
0.0169531 0.00651563 1.99551 2.52035e+21 1.67603e-05 -0.489429 2.05294 3.47991 
0.0147656 0.00660938 2.06389 2.43058e+21 1.61634e-05 3.32499 0.0395398 -0.954851 
0.0136719 0.00670313 2.01267 2.43364e+21 1.61837e-05 -2.33771 -1.32927 1.11295 
0.0147656 0.00670313 1.96013 2.39427e+21 1.59219e-05 4.50721 -1.33133 2.26705 
0.0158594 0.00660938 2.02426 2.35309e+21 1.5648e-05 0.455288 -2.7435 -1.29953 
0.0169531 0.00670313 2.0551 2.45448e+21 1.63223e-05 1.15849 -2.25217 3.1935 
0.0136719 0.00679687 1.95271 2.45031e+21 1.62946e-05 1.68405 0.602521 -1.56333 
0.0158594 0.00689062 2.01524 2.41022e+21 1.60279e-05 1.28247 -2.89167 -0.594919 
0.0158594 0.00707812 1.93179 2.35733e+21 1.56763e-05 4.64958 0.157061 -2.66575 
0.0136719 0.00726562 2.02422 2.38409e+21 1.58542e-05 0.486517 2.48642 1.94659 
0.0147656 0.00726562 2.00132 2.51867e+21 1.67492e-05 3.87959 -3.82929 0.986945 
0.0158594 0.00717187 2.02786 2.34167e+21 1.55721e-05 -1.24736 1.35688 0.590634 
0.0169531 0.00726562 2.05638 2.52508e+21 1.67918e-05 1.16166 -0.342148 1.62403 
0.0169531 0.00735937 1.94348 2.41066e+21 1.60309e-05 -0.143849 -0.818591 1.2338 
0.0103906 0.00942187 0 0 0 0 0 0 
0.0103906 0.00951562 1.98012 2.72497e+21 1.81211e-05 -0.811799 -1.92482 0.944594 
0.00929687 0.0127031 2.16479 2.90151e+21 1.9295e-05 -0.257829 0.937161 -0.129589 
0.0103906 0.0127031 1.96737 2.90151e+21 1.9295e-05 0.490003 -2.14472 -2.523 
0.0114844 0.0127031 1.94131 2.78083e+21 1.84925e-05 2.66174 5.02866 2.52918 
0.0125781 0.0127031 2.0663 2.58145e+21 1.71667e-05 3.957 -0.570464 -0.179572 
0.0158594 0.0127031 2.09346 2.50013e+21 1.66258e-05 2.41912 -0.98666 0.842521 
0.0169531 0.0127031 1.97916 2.45553e+21 1.63293e-05 2.73383 2.04383 -2.81009 
0.0311719 0.00304688 1.97485 2.51144e+21 1.67011e-05 -2.30031 -4.00422 -1.24772 
0.0322656 0.00304688 1.9863 2.23126e+21 1.48379e-05 -3.03537 -1.58466 -8.1924 
0.0311719 0.00314063 2.08144 2.43647e+21 1.62025e-05 4.23258 -4.05937 2.40295 
0.0322656 0.00314063 1.98073 2.39694e+21 1.59396e-05 0.850595 -2.95502 -0.666882 
0.0202344 0.00417188 1.94163 2.35879e+21 1.56859e-05 1.68315 -3.03619 0.938276 
0.0213281 0.00417188 2.1445 2.34763e+21 1.56117e-05 0.159513 -3.53424 2.64161 
0.0202344 0.00426563 1.95824 2.53982e+21 1.68898e-05 2.31254 0.913302 -0.355699 
0.0213281 0.00426563 1.93412 2.65262e+21 1.76399e-05 3.42826 -0.00107087 0.340569 
0.0246094 0.00435938 1.97226 2.3321e+21 1.55085e-05 2.54529 2.73133 2.05067 
0.0257031 0.00435938 2.00607 2.41043e+21 1.60294e-05 -0.26746 -3.88188 -2.17257 
0.0246094 0.00445313 2.03837 2.48168e+21 1.65032e-05 9.00765 -2.4664 -0.477731 
0.0257031 0.00445313 1.90814 2.3318e+21 1.55065e-05 1.01722 0.367966 -1.67038 
0.0289844 0.00435938 1.88574 2.43536e+21 1.61951e-05 5.53789 -0.0898779 -5.5562 
0.0300781 0.00435938 1.95533 2.55285e+21 1.69765e-05 2.77186 0.848771 -1.81064 
0.0289844 0.00445313 1.97853 2.29695e+21 1.52747e-05 4.85466 -3.21187 1.96286 
0.0300781 0.00445313 2.02877 2.60716e+21 1.73376e-05 4.06689 -1.58489 1.32437 
0.0202344 0.00604688 1.95736 2.3615e+21 1.5704e-05 -0.521371 0.843145 -1.88807 
0.0213281 0.00604688 1.92986 2.33583e+21 1.55333e-05 3.1108 -1.64194 -0.793767 
0.0202344 0.00614063 1.93342 2.45941e+21 1.63551e-05 2.11744 0.270558 3.21037 
0.0213281 0.00614063 1.97836 2.6136e+21 1.73804e-05 4.37207 -0.497977 0.835566 
0.0180469 0.00623438 2.01827 2.38259e+21 1.58442e-05 1.75767 -2.93017 -1.05227 
0.0180469 0.00632813 2.04845 2.54106e+21 1.68981e-05 1.02616 -3.13205 0.448607 
0.0202344 0.00623438 2.00191 2.44483e+21 1.62581e-05 3.13364 -0.272251 3.36977 
0.0224219 0.00604688 2.00424 2.44877e+21 1.62843e-05 2.8395 1.36516 -2.20806 
0.0235156 0.00614063 1.9858 2.4948e+21 1.65904e-05 2.60461 0.161096 -1.96433 
0.0246094 0.00604688 1.90464 2.37177e+21 1.57722e-05 1.08212 -1.50071 2.03414 
0.0257031 0.00604688 2.00191 2.42567e+21 1.61307e-05 1.48414 1.5168 -0.62414 
0.0246094 0.00614063 1.9613 2.31028e+21 1.53634e-05 4.5836 1.72782 1.66565 
0.0257031 0.00614063 2.00951 2.38611e+21 1.58676e-05 0.33487 0.116398 1.59814 
0.0224219 0.00623438 2.04642 2.29546e+21 1.52648e-05 4.87445 0.144601 1.26191 
0.0235156 0.00623438 1.97375 2.51205e+21 1.67052e-05 4.29556 3.66587 0.237282 
0.0224219 0.00632813 1.97957 2.57295e+21 1.71101e-05 2.64716 -0.0267019 -0.574913 
0.0180469 0.00642188 1.95574 2.56923e+21 1.70853e-05 1.58677 -3.02418 0.0708009 
0.0213281 0.00651563 1.9855 2.46794e+21 1.64118e-05 0.262403 4.05014 -0.196762 
0.0202344 0.00670313 1.98593 2.41743e+21 1.60759e-05 2.25674 -2.05775 -3.37904 
0.0246094 0.00642188 2.01909 2.50638e+21 1.66675e-05 1.53395 -0.42608 1.83904 
0.0257031 0.00642188 1.80747 2.44596e+21 1.62656e-05 2.00177 -3.34868 0.984126 
0.0257031 0.00651563 2.04871 2.45365e+21 1.63167e-05 4.28489 -2.40237 -0.0142487 
0.0289844 0.00604688 1.96514 2.61562e+21 1.73938e-05 1.95762 3.76659 -1.50976 
0.0300781 0.00614063 1.9634 2.45941e+21 1.63551e-05 1.81151 0.718159 -1.12752 
0.0267969 0.00623438 2.00203 2.41994e+21 1.60926e-05 0.981336 2.3657 -2.03338 
0.0278906 0.00623438 1.95214 2.4299e+21 1.61588e-05 0.367159 0.387041 0.858017 
0.0278906 0.00632813 2.01279 2.6171e+21 1.74037e-05 3.4917 0.350366 0.59881 
0.0289844 0.00623438 2.06102 2.43736e+21 1.62085e-05 5.32637 -0.15312 -3.75275 
0.0289844 0.00632813 1.98717 2.53616e+21 1.68654e-05 1.62873 0.10095 0.417966 
0.0300781 0.00632813 1.98574 2.46993e+21 1.64251e-05 2.01226 -1.35076 2.38397 
0.0311719 0.00614063 2.01015 2.55546e+21 1.69938e-05 4.88648 -2.60148 1.8338 
0.0322656 0.00614063 2.02109 2.52007e+21 1.67585e-05 2.00723 -0.524925 -2.04782 
0.0333594 0.00604688 2.01359 2.36663e+21 1.57381e-05 -1.96495 1.50367 1.07414 
0.0344531 0.00604688 1.9051 2.4385e+21 1.6216e-05 2.7966 3.16426 -4.20016 
0.0344531 0.00614063 2.04728 2.57821e+21 1.71451e-05 -0.380633 -5.04341 0.444877 
0.0344531 0.00623438 1.91409 2.37761e+21 1.58111e-05 0.611726 -0.332662 -0.629669 
0.0344531 0.00632813 1.95719 2.60238e+21 1.73058e-05 0.740245 -0.417245 1.8483 
0.0267969 0.00660938 1.98448 2.42119e+21 1.61009e-05 2.26781 2.06223 0.561841 
0.0300781 0.00660938 1.90481 2.43293e+21 1.6179e-05 0.148401 1.67089 -1.46797 
0.0300781 0.00670313 1.92736 2.3827e+21 1.58449e-05 1.30184 2.63692 -0.398214 
0.0191406 0.00689062 2.00232 2.5296e+21 1.68218e-05 0.951007 -0.177568 -0.708203 
0.0202344 0.00679687 1.95313 2.56449e+21 1.70539e-05 2.56899 -1.85116 0.118798 
0.0246094 0.00679687 1.91068 2.34527e+21 1.5596e-05 1.51822 1.93238 -3.20071 
0.0202344 0.00726562 1.98398 2.41613e+21 1.60673e-05 3.07115 -3.58562 -0.526884 
0.0257031 0.00717187 2.04139 2.4607e+21 1.63637e-05 1.49424 -1.3128 -3.28041 
0.0267969 0.00679687 1.98541 2.54394e+21 1.69172e-05 2.01706 -0.0612556 -0.247279 
0.0267969 0.00689062 2.02829 2.29759e+21 1.5279e-05 3.38387 -1.80976 1.83756 
0.0311719 0.00679687 1.98895 2.54394e+21 1.69172e-05 2.8458 -1.55869 -1.39468 
0.0311719 0.00689062 1.99631 2.31786e+21 1.54138e-05 1.18315 -3.22404 -1.42813 
0.0344531 0.00689062 2.024 2.42373e+21 1.61178e-05 1.66186 2.29812 -1.53296 
0.0322656 0.00698437 2.06231 2.46676e+21 1.64039e-05 0.643747 2.7517 -0.695873 
0.0344531 0.00698437 2.06031 2.42231e+21 1.61084e-05 1.03053 1.00431 -0.895139 
0.0344531 0.00707812 1.96416 2.67969e+21 1.78199e-05 3.10556 -0.00800249 -2.16545 
0.0267969 0.00717187 2.04145 2.36331e+21 1.5716e-05 5.09475 1.64402 -1.84625 
0.0278906 0.00726562 1.95874 2.40759e+21 1.60104e-05 2.00573 0.817261 0.384022 
0.0300781 0.00717187 1.93059 2.636e+21 1.75294e-05 1.18292 -2.20548 2.75265 
0.0322656 0.00717187 1.98909 2.44555e+21 1.62629e-05 -0.516739 -0.0504317 -1.06409 
0.0322656 0.00726562 1.98031 2.46527e+21 1.6394e-05 0.804146 3.20283 -3.1941 
0.0344531 0.00717187 1.9889 2.48667e+21 1.65364e-05 -0.402792 -4.44713 -0.918561 
0.0333594 0.00726562 1.98329 2.59558e+21 1.72606e-05 3.58377 2.49958 3.56914 
0.0344531 0.00726562 2.01383 2.5144e+21 1.67208e-05 3.31485 -0.19017 -0.936608 
0.0180469 0.0127031 2.0685 2.52374e+21 1.67828e-05 2.72824 2.28518 -0.0629764 
0.0180469 0.0156094 0 0 0 0 0 0 
0.0180469 0.0157031 0 0 0 0 0 0 
0.0180469 0.0157969 0 0 0 0 0 0 
0.0180469 0.0158906 0 0 0 0 0 0 
0.0180469 0.0182344 0 0 0 0 0 0 
0.0180469 0.0183281 0 0 0 0 0 0 
0.0180469 0.0186094 0 0 0 0 0 0 
0.0180469 0.0187031 0 0 0 0 0 0 
0.0180469 0.0187969 0 0 0 0 0 0 
0.0180469 0.0188906 0 0 0 0 0 0 
0.0180469 0.0189844 0 0 0 0 0 0 
0.0180469 0.0190781 0 0 0 0 0 0 
0.0180469 0.0191719 0 0 0 0 0 0 
0.0180469 0.0192656 0 0 0 0 0 0 
0.0180469 0.0193594 0 0 0 0 0 0 
0.0180469 0.0194531 0 0 0 0 0 0 
0.0180469 0.0210469 0 0 0 0 0 0 
0.0180469 0.0211406 0 0 0 0 0 0 
0.0180469 0.0212344 0 0 0 0 0 0 
0.0180469 0.0213281 0 0 0 0 0 0 
0.0180469 0.0214219 0 0 0 0 0 0 
0.0180469 0.0215156 0 0 0 0 0 0 
0.00601562 0.00154688 1.97297 7.65914e+21 5.09333e-05 24.5075 -0.202499 -1.93446 
0.00492187 0.00164063 0 0 0 0 0 0 
0.00601562 0.00164063 1.9547 3.94426e+21 2.62293e-05 26.0439 14.0299 1.60027 
0.00710937 0.00285937 1.94313 3.3818e+21 2.2489e-05 -2.72564 6.54293 5.24986 
0.00820312 0.00285937 1.9566 3.78892e+21 2.51963e-05 -2.89079 17.2351 1.14476 
0.00710937 0.00295313 1.97566 3.55826e+21 2.36624e-05 -1.05008 10.5395 2.40933 
0.00820312 0.00295313 2.00962 3.66863e+21 2.43964e-05 2.62542 18.2349 1.697 
0.00710937 0.00454687 1.9856 3.27709e+21 2.17927e-05 0.0294598 8.99809 2.05387 
0.00820312 0.00473437 1.9298 2.99322e+21 1.99049e-05 -0.847222 7.99903 4.00143 
0.00710937 0.00482812 1.90308 3.32409e+21 2.21052e-05 -3.56242 6.47039 -1.71622 
0.00710937 0.00492187 1.97662 3.28285e+21 2.18309e-05 0.188136 6.65812 2.51847 
0.00710937 0.00510937 2.11688 3.13808e+21 2.08682e-05 -0.0581832 5.92346 1.37736 
0.00820312 0.00510937 1.93788 3.20491e+21 2.13126e-05 0.580791 10.3833 1.34615 
0.00820312 0.00520312 1.96438 3.23665e+21 2.15237e-05 -2.872 11.1498 0.806594 
0.0158594 0.00510937 1.94091 2.46672e+21 1.64037e-05 1.52644 -1.07798 -0.244809 
0.0169531 0.00510937 2.03078 2.42115e+21 1.61006e-05 0.835277 1.26145 -2.16017 
0.0158594 0.00520312 1.92462 2.66987e+21 1.77546e-05 1.34967 -1.10929 3.51666 
0.0169531 0.00520312 1.94822 2.45807e+21 1.63461e-05 0.281847 0.943937 0.027062 
0.00710937 0.00529687 1.97264 3.25556e+21 2.16494e-05 3.36744 6.3925 -2.72941 
0.00710937 0.00539062 1.96541 3.06361e+21 2.0373e-05 0.197964 5.02178 3.60581 
0.0158594 0.00548437 2.00409 2.41126e+21 1.60348e-05 0.0555769 -2.70374 1.39328 
0.0169531 0.00548437 2.01088 2.37729e+21 1.5809e-05 -2.43991 -1.99032 -2.73342 
0.0158594 0.00557812 1.93489 2.40412e+21 1.59874e-05 0.738327 -2.06737 -0.615136 
0.0169531 0.00557812 1.92406 2.49316e+21 1.65795e-05 1.63348 -2.70859 1.35354 
0.0158594 0.00567187 1.9468 2.44648e+21 1.62691e-05 -0.87135 -0.379349 2.52167 
0.0169531 0.00567187 1.90175 2.56415e+21 1.70516e-05 -1.55725 0.875385 4.8255 
0.0136719 0.00585938 2.01796 2.56422e+21 1.7052e-05 -1.99338 -3.82402 0.147731 
0.0147656 0.00585938 1.96908 2.51124e+21 1.66997e-05 -1.47879 -1.86309 -2.42221 
0.0147656 0.00595313 1.94132 2.50559e+21 1.66621e-05 3.15103 -4.84487 -2.3134 
0.0158594 0.00585938 2.00764 2.3576e+21 1.5678e-05 0.809086 3.15383 -0.966281 
0.0158594 0.00595313 2.04198 2.61248e+21 1.7373e-05 -0.671541 -1.36345 1.95471 
0.0169531 0.00773437 2.00929 2.44028e+21 1.62278e-05 1.59712 -2.79169 4.46729 
0.00929687 0.00829688 2.0418 2.81212e+21 1.87006e-05 -0.0502689 2.34703 0.578621 
0.0103906 0.00829688 0 0 0 0 0 0 
0.0103906 0.00839063 0 0 0 0 0 0 
0.0103906 0.00885938 0 0 0 0 0 0 
0.0103906 0.00895312 0 0 0 0 0 0 
0.0180469 0.00454687 1.92855 2.29738e+21 1.52776e-05 3.77673 -1.05044 -0.0429205 
0.0191406 0.00454687 1.86118 2.3281e+21 1.54819e-05 -4.11611 -0.885256 0.380341 
0.0180469 0.00464062 1.96194 2.36469e+21 1.57252e-05 4.57591 0.0489708 -1.77009 
0.0191406 0.00464062 2.01151 2.36469e+21 1.57252e-05 3.40135 -4.06896 4.58366 
0.0246094 0.00454687 1.90368 2.34858e+21 1.56181e-05 -1.32221 -3.89171 -0.779037 
0.0257031 0.00454687 1.93973 2.48854e+21 1.65488e-05 4.01828 4.41216 3.19975 