ITEM: TIMESTEP
400000
ITEM: NUMBER OF CELLS
35222
ITEM: BOX BOUNDS oo ao pp
0 0.35
0 0.03
-0.1 0.1
ITEM: CELLS xc yc f_out[1] f_out[2] f_out[3] f_out[4] f_out[5] f_out[6] 
0.00875 0.01575 0 0 0 0 0 0 
0.00875 0.01875 0 0 0 0 0 0 
0.00875 0.02175 0 0 0 0 0 0 
0.00875 0.02475 0 0 0 0 0 0 
0.00875 0.02775 0 0 0 0 0 0 
0.02625 0.02475 0 0 0 0 0 0 
0.02625 0.02775 0 0 0 0 0 0 
0.00875 0.01425 0 0 0 0 0 0 
0.00875 0.01725 0 0 0 0 0 0 
0.00875 0.02025 0 0 0 0 0 0 
0.00875 0.02325 0 0 0 0 0 0 
0.00875 0.02625 0 0 0 0 0 0 
0.00875 0.02925 0 0 0 0 0 0 
0.02625 0.02325 0 0 0 0 0 0 
0.02625 0.02625 0 0 0 0 0 0 
0.02625 0.02925 0 0 0 0 0 0 
0.04375 0.02325 0 0 0 0 0 0 
0.04375 0.02625 0 0 0 0 0 0 
0.04375 0.02925 0 0 0 0 0 0 
0.004375 0.013125 0 0 0 0 0 0 
0.013125 0.013125 0 0 0 0 0 0 
0.021875 0.022125 0 0 0 0 0 0 
0.030625 0.022125 0 0 0 0 0 0 
0.0021875 0.0001875 0 0 0 0 0 0 
0.0109375 0.0009375 0 0 0 0 0 0 
0.0109375 0.0009375 0 0 0 0 0 0 
0.0021875 0.0031875 0 0 0 0 0 0 
0.0021875 0.0035625 0 0 0 0 0 0 
0.0021875 0.0039375 0 0 0 0 0 0 
0.0021875 0.0043125 0 0 0 0 0 0 
0.0021875 0.0061875 0 0 0 0 0 0 
0.0021875 0.0065625 0 0 0 0 0 0 
0.0021875 0.0069375 0 0 0 0 0 0 
0.0021875 0.0073125 0 0 0 0 0 0 
0.0021875 0.0091875 0 0 0 0 0 0 
0.0021875 0.0095625 0 0 0 0 0 0 
0.0021875 0.0099375 0 0 0 0 0 0 
0.0021875 0.0103125 0 0 0 0 0 0 
0.0021875 0.0121875 0 0 0 0 0 0 
0.0021875 0.0125625 0 0 0 0 0 0 
0.0021875 0.0020625 0 0 0 0 0 0 
0.0021875 0.0024375 0 0 0 0 0 0 
0.0021875 0.0028125 0 0 0 0 0 0 
0.0021875 0.0046875 0 0 0 0 0 0 
0.0021875 0.0050625 0 0 0 0 0 0 
0.0021875 0.0054375 0 0 0 0 0 0 
0.0021875 0.0058125 0 0 0 0 0 0 
0.0021875 0.0076875 0 0 0 0 0 0 
0.0021875 0.0080625 0 0 0 0 0 0 
0.0021875 0.0084375 0 0 0 0 0 0 
0.0021875 0.0088125 0 0 0 0 0 0 
0.0021875 0.0106875 0 0 0 0 0 0 
0.0021875 0.0110625 0 0 0 0 0 0 
0.0021875 0.0114375 0 0 0 0 0 0 
0.0021875 0.0118125 0 0 0 0 0 0 
0.0284375 0.0001875 0 0 0 0 0 0 
0.0328125 0.0001875 0 0 0 0 0 0 
0.00109375 0.00046875 0 0 0 0 0 0 
0.00328125 0.00046875 0 0 0 0 0 0 
0.00109375 0.00065625 0 0 0 0 0 0 
0.00765625 0.00046875 0 0 0 0 0 0 
0.00765625 0.00065625 0 0 0 0 0 0 
0.00109375 0.00084375 0 0 0 0 0 0 
0.00109375 0.00103125 0 0 0 0 0 0 
0.00109375 0.00121875 0 0 0 0 0 0 
0.00109375 0.00140625 0 0 0 0 0 0 
0.0142187 0.00121875 0 0 0 0 0 0 
0.0164062 0.00121875 0 0 0 0 0 0 
0.0142187 0.00140625 0 0 0 0 0 0 
0.00546875 0.00309375 0 0 0 0 0 0 
0.00546875 0.00328125 0 0 0 0 0 0 
0.00546875 0.00346875 0 0 0 0 0 0 
0.00546875 0.00365625 0 0 0 0 0 0 
0.0120312 0.00309375 0 0 0 0 0 0 
0.00984375 0.00328125 0 0 0 0 0 0 
0.0120312 0.00328125 0 0 0 0 0 0 
0.00546875 0.00384375 0 0 0 0 0 0 
0.00546875 0.00403125 0 0 0 0 0 0 
0.00546875 0.00421875 0 0 0 0 0 0 
0.00546875 0.00440625 0 0 0 0 0 0 
0.0120312 0.00384375 0 0 0 0 0 0 
0.0120312 0.00403125 0 0 0 0 0 0 
0.0120312 0.00421875 0 0 0 0 0 0 
0.0120312 0.00440625 0 0 0 0 0 0 
0.00546875 0.00609375 0 0 0 0 0 0 
0.00546875 0.00628125 0 0 0 0 0 0 
0.00546875 0.00646875 0 0 0 0 0 0 
0.00546875 0.00665625 0 0 0 0 0 0 
0.0120312 0.00609375 0 0 0 0 0 0 
0.0120312 0.00628125 0 0 0 0 0 0 
0.0120312 0.00646875 0 0 0 0 0 0 
0.00546875 0.00684375 0 0 0 0 0 0 
0.00546875 0.00703125 0 0 0 0 0 0 
0.00546875 0.00721875 0 0 0 0 0 0 
0.00546875 0.00740625 0 0 0 0 0 0 
0.0120312 0.00684375 0 0 0 0 0 0 
0.0120312 0.00703125 0 0 0 0 0 0 
0.0120312 0.00721875 0 0 0 0 0 0 
0.0120312 0.00740625 0 0 0 0 0 0 
0.00546875 0.00909375 0 0 0 0 0 0 
0.00546875 0.00928125 0 0 0 0 0 0 
0.00546875 0.00946875 0 0 0 0 0 0 
0.00546875 0.00965625 0 0 0 0 0 0 
0.0120312 0.00928125 0 0 0 0 0 0 
0.00546875 0.00984375 0 0 0 0 0 0 
0.00546875 0.0100312 0 0 0 0 0 0 
0.00546875 0.0102187 0 0 0 0 0 0 
0.00546875 0.0104062 0 0 0 0 0 0 
0.00546875 0.0120938 0 0 0 0 0 0 
0.00546875 0.0122813 0 0 0 0 0 0 
0.00546875 0.0124688 0 0 0 0 0 0 
0.00546875 0.0126563 0 0 0 0 0 0 
0.0185937 0.0216562 0 0 0 0 0 0 
0.00546875 0.00178125 0 0 0 0 0 0 
0.00546875 0.00196875 0 0 0 0 0 0 
0.00546875 0.00215625 0 0 0 0 0 0 
0.00546875 0.00234375 0 0 0 0 0 0 
0.00546875 0.00253125 0 0 0 0 0 0 
0.00546875 0.00271875 0 0 0 0 0 0 
0.00546875 0.00290625 0 0 0 0 0 0 
0.00984375 0.00271875 0 0 0 0 0 0 
0.0120312 0.00271875 0 0 0 0 0 0 
0.0120312 0.00290625 0 0 0 0 0 0 
0.00546875 0.00459375 0 0 0 0 0 0 
0.00546875 0.00478125 0 0 0 0 0 0 
0.00546875 0.00496875 0 0 0 0 0 0 
0.00546875 0.00515625 0 0 0 0 0 0 
0.0120312 0.00459375 0 0 0 0 0 0 
0.0120312 0.00478125 0 0 0 0 0 0 
0.0120312 0.00496875 0 0 0 0 0 0 
0.0120312 0.00515625 0 0 0 0 0 0 
0.00546875 0.00534375 0 0 0 0 0 0 
0.00546875 0.00553125 0 0 0 0 0 0 
0.00546875 0.00571875 0 0 0 0 0 0 
0.00546875 0.00590625 0 0 0 0 0 0 
0.0120312 0.00534375 0 0 0 0 0 0 
0.0120312 0.00553125 0 0 0 0 0 0 
0.0120312 0.00571875 0 0 0 0 0 0 
0.0120312 0.00590625 0 0 0 0 0 0 
0.00546875 0.00759375 0 0 0 0 0 0 
0.00546875 0.00778125 0 0 0 0 0 0 
0.00546875 0.00796875 0 0 0 0 0 0 
0.00546875 0.00815625 0 0 0 0 0 0 
0.0120312 0.00778125 0 0 0 0 0 0 
0.0120312 0.00815625 0 0 0 0 0 0 
0.00546875 0.00834375 0 0 0 0 0 0 
0.00546875 0.00853125 0 0 0 0 0 0 
0.00546875 0.00871875 0 0 0 0 0 0 
0.00546875 0.00890625 0 0 0 0 0 0 
0.0120312 0.00834375 0 0 0 0 0 0 
0.0120312 0.00853125 0 0 0 0 0 0 
0.00546875 0.0105937 0 0 0 0 0 0 
0.00546875 0.0107812 0 0 0 0 0 0 
0.00546875 0.0109687 0 0 0 0 0 0 
0.00546875 0.0111562 0 0 0 0 0 0 
0.00546875 0.0113437 0 0 0 0 0 0 
0.00546875 0.0115312 0 0 0 0 0 0 
0.00546875 0.0117188 0 0 0 0 0 0 
0.00546875 0.0119063 0 0 0 0 0 0 
0.0317187 0.00159375 0 0 0 0 0 0 
0.0109375 0.0001875 0 0 0 0 0 0 
0.0109375 0.0001875 0 0 0 0 0 0 
0.0153125 0.0001875 0 0 0 0 0 0 
0.0109375 0.0005625 0 0 0 0 0 0 
0.0109375 0.0005625 0 0 0 0 0 0 
0.0196875 0.0001875 0 0 0 0 0 0 
0.0240625 0.0001875 0 0 0 0 0 0 
0.0120312 0.00346875 0 0 0 0 0 0 
0.0120312 0.00365625 0 0 0 0 0 0 
0.0142187 0.00159375 0 0 0 0 0 0 
0.0164062 0.00159375 0 0 0 0 0 0 
0.00984375 0.00234375 0 0 0 0 0 0 
0.0120312 0.00234375 0 0 0 0 0 0 
0.0120312 0.00253125 0 0 0 0 0 0 
0.0207812 0.00159375 0 0 0 0 0 0 
0.0251562 0.00159375 0 0 0 0 0 0 
0.0295312 0.00159375 0 0 0 0 0 0 
0.0360937 0.00159375 0 0 0 0 0 0 
0.0360937 0.00178125 0 0 0 0 0 0 
0.0382812 0.00178125 0 0 0 0 0 0 
0.0404687 0.00178125 0 0 0 0 0 0 
0.0426562 0.00178125 0 0 0 0 0 0 
0.0404687 0.00196875 0 0 0 0 0 0 
0.0492187 0.00159375 0 0 0 0 0 0 
0.0514062 0.00159375 0 0 0 0 0 0 
0.00492187 0.000609375 0 0 0 0 0 0 
0.00601562 0.000609375 0 0 0 0 0 0 
0.00492187 0.000703125 0 0 0 0 0 0 
0.00601562 0.000703125 0 0 0 0 0 0 
0.00273437 0.000984375 0 0 0 0 0 0 
0.00382812 0.000984375 0 0 0 0 0 0 
0.00273437 0.00107813 0 0 0 0 0 0 
0.00492187 0.000796875 0 0 0 0 0 0 
0.00601562 0.000796875 0 0 0 0 0 0 
0.00492187 0.000890625 0 0 0 0 0 0 
0.00601562 0.000890625 0 0 0 0 0 0 
0.00492187 0.000984375 0 0 0 0 0 0 
0.00601562 0.000984375 0 0 0 0 0 0 
0.00492187 0.00107813 0 0 0 0 0 0 
0.00601562 0.00107813 0 0 0 0 0 0 
0.00273437 0.00117188 0 0 0 0 0 0 
0.00273437 0.00126563 0 0 0 0 0 0 
0.00273437 0.00135937 0 0 0 0 0 0 
0.00273437 0.00145312 0 0 0 0 0 0 
0.00492187 0.00117188 0 0 0 0 0 0 
0.00601562 0.00117188 0 0 0 0 0 0 
0.00492187 0.00126563 0 0 0 0 0 0 
0.00601562 0.00126563 0 0 0 0 0 0 
0.00710937 0.00117188 0 0 0 0 0 0 
0.00820312 0.00117188 0 0 0 0 0 0 
0.00710937 0.00126563 0 0 0 0 0 0 
0.00820312 0.00126563 0 0 0 0 0 0 
0.00601562 0.00135937 0 0 0 0 0 0 
0.00601562 0.00145312 0 0 0 0 0 0 
0.00710937 0.00342187 0 0 0 0 0 0 
0.00820312 0.00342187 0 0 0 0 0 0 
0.00710937 0.00351562 0 0 0 0 0 0 
0.00820312 0.00351562 0 0 0 0 0 0 
0.00710937 0.00360937 0 0 0 0 0 0 
0.00820312 0.00360937 0 0 0 0 0 0 
0.00710937 0.00370312 0 0 0 0 0 0 
0.00820312 0.00370312 0 0 0 0 0 0 
0.0158594 0.00342187 0 0 0 0 0 0 
0.0169531 0.00342187 0 0 0 0 0 0 
0.0158594 0.00351562 0 0 0 0 0 0 
0.0169531 0.00351562 0 0 0 0 0 0 
0.0136719 0.00360937 0 0 0 0 0 0 
0.0147656 0.00360937 0 0 0 0 0 0 
0.0136719 0.00370312 0 0 0 0 0 0 
0.0147656 0.00370312 0 0 0 0 0 0 
0.00710937 0.00379687 0 0 0 0 0 0 
0.00710937 0.00389062 0 0 0 0 0 0 
0.00710937 0.00398438 0 0 0 0 0 0 
0.00820312 0.00398438 0 0 0 0 0 0 
0.00710937 0.00407813 0 0 0 0 0 0 
0.00820312 0.00417188 0 0 0 0 0 0 
0.00710937 0.00426563 0 0 0 0 0 0 
0.00820312 0.00426563 0 0 0 0 0 0 
0.00820312 0.00435938 0 0 0 0 0 0 
0.0136719 0.00417188 0 0 0 0 0 0 
0.0147656 0.00417188 0 0 0 0 0 0 
0.0136719 0.00426563 0 0 0 0 0 0 
0.0147656 0.00426563 0 0 0 0 0 0 
0.0158594 0.00435938 0 0 0 0 0 0 
0.0169531 0.00435938 0 0 0 0 0 0 
0.0158594 0.00445313 0 0 0 0 0 0 
0.0169531 0.00445313 0 0 0 0 0 0 
0.0158594 0.00604688 0 0 0 0 0 0 
0.0169531 0.00604688 0 0 0 0 0 0 
0.0136719 0.00623438 0 0 0 0 0 0 
0.0147656 0.00623438 0 0 0 0 0 0 
0.0136719 0.00632813 0 0 0 0 0 0 
0.0158594 0.00632813 0 0 0 0 0 0 
0.0169531 0.00632813 0 0 0 0 0 0 
0.00929687 0.00660938 0 0 0 0 0 0 
0.0103906 0.00660938 0 0 0 0 0 0 
0.00929687 0.00670313 0 0 0 0 0 0 
0.0103906 0.00670313 0 0 0 0 0 0 
0.0158594 0.00651563 0 0 0 0 0 0 
0.0169531 0.00651563 0 0 0 0 0 0 
0.0147656 0.00660938 0 0 0 0 0 0 
0.0136719 0.00670313 0 0 0 0 0 0 
0.0147656 0.00670313 0 0 0 0 0 0 
0.0158594 0.00660938 0 0 0 0 0 0 
0.0169531 0.00670313 0 0 0 0 0 0 
0.0136719 0.00679687 0 0 0 0 0 0 
0.0158594 0.00689062 0 0 0 0 0 0 
0.0158594 0.00707812 0 0 0 0 0 0 
0.0136719 0.00726562 0 0 0 0 0 0 
0.0147656 0.00726562 0 0 0 0 0 0 
0.0158594 0.00717187 0 0 0 0 0 0 
0.0169531 0.00726562 0 0 0 0 0 0 
0.0169531 0.00735937 0 0 0 0 0 0 
0.0103906 0.00942187 0 0 0 0 0 0 
0.0103906 0.00951562 0 0 0 0 0 0 
0.00929687 0.0127031 0 0 0 0 0 0 
0.0103906 0.0127031 0 0 0 0 0 0 
0.0114844 0.0127031 0 0 0 0 0 0 
0.0125781 0.0127031 0 0 0 0 0 0 
0.0158594 0.0127031 0 0 0 0 0 0 
0.0169531 0.0127031 0 0 0 0 0 0 
0.0311719 0.00304688 0 0 0 0 0 0 
0.0322656 0.00304688 0 0 0 0 0 0 
0.0311719 0.00314063 0 0 0 0 0 0 
0.0322656 0.00314063 0 0 0 0 0 0 
0.0202344 0.00417188 0 0 0 0 0 0 
0.0213281 0.00417188 0 0 0 0 0 0 
0.0202344 0.00426563 0 0 0 0 0 0 
0.0213281 0.00426563 0 0 0 0 0 0 
0.0246094 0.00435938 0 0 0 0 0 0 
0.0257031 0.00435938 0 0 0 0 0 0 
0.0246094 0.00445313 0 0 0 0 0 0 
0.0257031 0.00445313 0 0 0 0 0 0 
0.0289844 0.00435938 0 0 0 0 0 0 
0.0300781 0.00435938 0 0 0 0 0 0 
0.0289844 0.00445313 0 0 0 0 0 0 
0.0300781 0.00445313 0 0 0 0 0 0 
0.0202344 0.00604688 0 0 0 0 0 0 
0.0213281 0.00604688 0 0 0 0 0 0 
0.0202344 0.00614063 0 0 0 0 0 0 
0.0213281 0.00614063 0 0 0 0 0 0 
0.0180469 0.00623438 0 0 0 0 0 0 
0.0180469 0.00632813 0 0 0 0 0 0 
0.0202344 0.00623438 0 0 0 0 0 0 
0.0224219 0.00604688 0 0 0 0 0 0 
0.0235156 0.00614063 0 0 0 0 0 0 
0.0246094 0.00604688 0 0 0 0 0 0 
0.0257031 0.00604688 0 0 0 0 0 0 
0.0246094 0.00614063 0 0 0 0 0 0 
0.0257031 0.00614063 0 0 0 0 0 0 
0.0224219 0.00623438 0 0 0 0 0 0 
0.0235156 0.00623438 0 0 0 0 0 0 
0.0224219 0.00632813 0 0 0 0 0 0 
0.0180469 0.00642188 0 0 0 0 0 0 
0.0213281 0.00651563 0 0 0 0 0 0 
0.0202344 0.00670313 0 0 0 0 0 0 
0.0246094 0.00642188 0 0 0 0 0 0 
0.0257031 0.00642188 0 0 0 0 0 0 
0.0257031 0.00651563 0 0 0 0 0 0 
0.0289844 0.00604688 0 0 0 0 0 0 
0.0300781 0.00614063 0 0 0 0 0 0 
0.0267969 0.00623438 0 0 0 0 0 0 
0.0278906 0.00623438 0 0 0 0 0 0 
0.0278906 0.00632813 0 0 0 0 0 0 
0.0289844 0.00623438 0 0 0 0 0 0 
0.0289844 0.00632813 0 0 0 0 0 0 
0.0300781 0.00632813 0 0 0 0 0 0 
0.0311719 0.00614063 0 0 0 0 0 0 
0.0322656 0.00614063 0 0 0 0 0 0 
0.0333594 0.00604688 0 0 0 0 0 0 
0.0344531 0.00604688 0 0 0 0 0 0 
0.0344531 0.00614063 0 0 0 0 0 0 
0.0344531 0.00623438 0 0 0 0 0 0 
0.0344531 0.00632813 0 0 0 0 0 0 
0.0267969 0.00660938 0 0 0 0 0 0 
0.0300781 0.00660938 0 0 0 0 0 0 
0.0300781 0.00670313 0 0 0 0 0 0 
0.0191406 0.00689062 0 0 0 0 0 0 
0.0202344 0.00679687 0 0 0 0 0 0 
0.0246094 0.00679687 0 0 0 0 0 0 
0.0202344 0.00726562 0 0 0 0 0 0 
0.0257031 0.00717187 0 0 0 0 0 0 
0.0267969 0.00679687 0 0 0 0 0 0 
0.0267969 0.00689062 0 0 0 0 0 0 
0.0311719 0.00679687 0 0 0 0 0 0 
0.0311719 0.00689062 0 0 0 0 0 0 
0.0344531 0.00689062 0 0 0 0 0 0 
0.0322656 0.00698437 0 0 0 0 0 0 
0.0344531 0.00698437 0 0 0 0 0 0 
0.0344531 0.00707812 0 0 0 0 0 0 
0.0267969 0.00717187 0 0 0 0 0 0 
0.0278906 0.00726562 0 0 0 0 0 0 
0.0300781 0.00717187 0 0 0 0 0 0 
0.0322656 0.00717187 0 0 0 0 0 0 
0.0322656 0.00726562 0 0 0 0 0 0 
0.0344531 0.00717187 0 0 0 0 0 0 
0.0333594 0.00726562 0 0 0 0 0 0 
0.0344531 0.00726562 0 0 0 0 0 0 
0.0180469 0.0127031 0 0 0 0 0 0 
0.0180469 0.0156094 0 0 0 0 0 0 
0.0180469 0.0157031 0 0 0 0 0 0 
0.0180469 0.0157969 0 0 0 0 0 0 
0.0180469 0.0158906 0 0 0 0 0 0 
0.0180469 0.0182344 0 0 0 0 0 0 
0.0180469 0.0183281 0 0 0 0 0 0 
0.0180469 0.0186094 0 0 0 0 0 0 
0.0180469 0.0187031 0 0 0 0 0 0 
0.0180469 0.0187969 0 0 0 0 0 0 
0.0180469 0.0188906 0 0 0 0 0 0 
0.0180469 0.0189844 0 0 0 0 0 0 
0.0180469 0.0190781 0 0 0 0 0 0 
0.0180469 0.0191719 0 0 0 0 0 0 
0.0180469 0.0192656 0 0 0 0 0 0 
0.0180469 0.0193594 0 0 0 0 0 0 
0.0180469 0.0194531 0 0 0 0 0 0 
0.0180469 0.0210469 0 0 0 0 0 0 
0.0180469 0.0211406 0 0 0 0 0 0 
0.0180469 0.0212344 0 0 0 0 0 0 
0.0180469 0.0213281 0 0 0 0 0 0 
0.0180469 0.0214219 0 0 0 0 0 0 
0.0180469 0.0215156 0 0 0 0 0 0 
0.00601562 0.00154688 0 0 0 0 0 0 
0.00492187 0.00164063 0 0 0 0 0 0 
0.00601562 0.00164063 0 0 0 0 0 0 
0.00710937 0.00285937 0 0 0 0 0 0 
0.00820312 0.00285937 0 0 0 0 0 0 
0.00710937 0.00295313 0 0 0 0 0 0 
0.00820312 0.00295313 0 0 0 0 0 0 
0.00710937 0.00454687 0 0 0 0 0 0 
0.00820312 0.00473437 0 0 0 0 0 0 
0.00710937 0.00482812 0 0 0 0 0 0 
0.00710937 0.00492187 0 0 0 0 0 0 
0.00710937 0.00510937 0 0 0 0 0 0 
0.00820312 0.00510937 0 0 0 0 0 0 
0.00820312 0.00520312 0 0 0 0 0 0 
0.0158594 0.00510937 0 0 0 0 0 0 
0.0169531 0.00510937 0 0 0 0 0 0 
0.0158594 0.00520312 0 0 0 0 0 0 
0.0169531 0.00520312 0 0 0 0 0 0 
0.00710937 0.00529687 0 0 0 0 0 0 
0.00710937 0.00539062 0 0 0 0 0 0 
0.0158594 0.00548437 0 0 0 0 0 0 
0.0169531 0.00548437 0 0 0 0 0 0 
0.0158594 0.00557812 0 0 0 0 0 0 
0.0169531 0.00557812 0 0 0 0 0 0 
0.0158594 0.00567187 0 0 0 0 0 0 
0.0169531 0.00567187 0 0 0 0 0 0 
0.0136719 0.00585938 0 0 0 0 0 0 
0.0147656 0.00585938 0 0 0 0 0 0 
0.0147656 0.00595313 0 0 0 0 0 0 
0.0158594 0.00585938 0 0 0 0 0 0 
0.0158594 0.00595313 0 0 0 0 0 0 
0.0169531 0.00773437 0 0 0 0 0 0 
0.00929687 0.00829688 0 0 0 0 0 0 
0.0103906 0.00829688 0 0 0 0 0 0 
0.0103906 0.00839063 0 0 0 0 0 0 
0.0103906 0.00885938 0 0 0 0 0 0 
0.0103906 0.00895312 0 0 0 0 0 0 
0.0180469 0.00454687 0 0 0 0 0 0 
0.0191406 0.00454687 0 0 0 0 0 0 
0.0180469 0.00464062 0 0 0 0 0 0 
0.0191406 0.00464062 0 0 0 0 0 0 
0.0246094 0.00454687 0 0 0 0 0 0 
0.0257031 0.00454687 0 0 0 0 0 0 
0.0246094 0.00464062 0 0 0 0 0 0 
0.0257031 0.00464062 0 0 0 0 0 0 
0.0224219 0.00473437 0 0 0 0 0 0 
0.0235156 0.00473437 0 0 0 0 0 0 
0.0224219 0.00482812 0 0 0 0 0 0 
0.0235156 0.00482812 0 0 0 0 0 0 
0.0246094 0.00473437 0 0 0 0 0 0 
0.0257031 0.00473437 0 0 0 0 0 0 
0.0246094 0.00482812 0 0 0 0 0 0 
0.0257031 0.00482812 0 0 0 0 0 0 
0.0202344 0.00492187 0 0 0 0 0 0 
0.0202344 0.00501562 0 0 0 0 0 0 
0.0213281 0.00501562 0 0 0 0 0 0 
0.0180469 0.00510937 0 0 0 0 0 0 
0.0191406 0.00510937 0 0 0 0 0 0 
0.0180469 0.00520312 0 0 0 0 0 0 
0.0191406 0.00520312 0 0 0 0 0 0 
0.0246094 0.00492187 0 0 0 0 0 0 
0.0257031 0.00492187 0 0 0 0 0 0 
0.0246094 0.00501562 0 0 0 0 0 0 
0.0257031 0.00501562 0 0 0 0 0 0 
0.0246094 0.00510937 0 0 0 0 0 0 
0.0257031 0.00510937 0 0 0 0 0 0 
0.0246094 0.00520312 0 0 0 0 0 0 
0.0257031 0.00520312 0 0 0 0 0 0 
0.0333594 0.00473437 0 0 0 0 0 0 
0.0344531 0.00473437 0 0 0 0 0 0 
0.0333594 0.00482812 0 0 0 0 0 0 
0.0344531 0.00482812 0 0 0 0 0 0 
0.0333594 0.00492187 0 0 0 0 0 0 
0.0344531 0.00492187 0 0 0 0 0 0 
0.0333594 0.00501562 0 0 0 0 0 0 
0.0344531 0.00501562 0 0 0 0 0 0 
0.0180469 0.00548437 0 0 0 0 0 0 
0.0191406 0.00548437 0 0 0 0 0 0 
0.0191406 0.00557812 0 0 0 0 0 0 
0.0202344 0.00548437 0 0 0 0 0 0 
0.0213281 0.00548437 0 0 0 0 0 0 
0.0202344 0.00557812 0 0 0 0 0 0 
0.0213281 0.00557812 0 0 0 0 0 0 
0.0224219 0.00529687 0 0 0 0 0 0 
0.0235156 0.00529687 0 0 0 0 0 0 
0.0224219 0.00539062 0 0 0 0 0 0 
0.0235156 0.00539062 0 0 0 0 0 0 
0.0246094 0.00548437 0 0 0 0 0 0 
0.0257031 0.00548437 0 0 0 0 0 0 
0.0246094 0.00557812 0 0 0 0 0 0 
0.0257031 0.00557812 0 0 0 0 0 0 
0.0202344 0.00567187 0 0 0 0 0 0 
0.0213281 0.00567187 0 0 0 0 0 0 
0.0202344 0.00576562 0 0 0 0 0 0 
0.0213281 0.00576562 0 0 0 0 0 0 
0.0180469 0.00585938 0 0 0 0 0 0 
0.0191406 0.00585938 0 0 0 0 0 0 
0.0180469 0.00595313 0 0 0 0 0 0 
0.0191406 0.00595313 0 0 0 0 0 0 
0.0235156 0.00567187 0 0 0 0 0 0 
0.0224219 0.00576562 0 0 0 0 0 0 
0.0235156 0.00576562 0 0 0 0 0 0 
0.0246094 0.00567187 0 0 0 0 0 0 
0.0257031 0.00567187 0 0 0 0 0 0 
0.0257031 0.00576562 0 0 0 0 0 0 
0.0235156 0.00585938 0 0 0 0 0 0 
0.0224219 0.00595313 0 0 0 0 0 0 
0.0289844 0.00529687 0 0 0 0 0 0 
0.0300781 0.00529687 0 0 0 0 0 0 
0.0289844 0.00539062 0 0 0 0 0 0 
0.0267969 0.00548437 0 0 0 0 0 0 
0.0278906 0.00548437 0 0 0 0 0 0 
0.0267969 0.00557812 0 0 0 0 0 0 
0.0278906 0.00557812 0 0 0 0 0 0 
0.0289844 0.00557812 0 0 0 0 0 0 
0.0311719 0.00529687 0 0 0 0 0 0 
0.0322656 0.00529687 0 0 0 0 0 0 
0.0322656 0.00539062 0 0 0 0 0 0 
0.0333594 0.00548437 0 0 0 0 0 0 
0.0344531 0.00548437 0 0 0 0 0 0 
0.0333594 0.00557812 0 0 0 0 0 0 
0.0278906 0.00567187 0 0 0 0 0 0 
0.0267969 0.00576562 0 0 0 0 0 0 
0.0311719 0.00567187 0 0 0 0 0 0 
0.0311719 0.00576562 0 0 0 0 0 0 
0.0322656 0.00576562 0 0 0 0 0 0 
0.0344531 0.00585938 0 0 0 0 0 0 
0.0235156 0.00782813 0 0 0 0 0 0 
0.0257031 0.00773437 0 0 0 0 0 0 
0.0278906 0.00754687 0 0 0 0 0 0 
0.0333594 0.00754687 0 0 0 0 0 0 
0.0180469 0.0171094 0 0 0 0 0 0 
0.0180469 0.0172031 0 0 0 0 0 0 
0.0180469 0.0172969 0 0 0 0 0 0 
0.0180469 0.0173906 0 0 0 0 0 0 
0.0180469 0.0178594 0 0 0 0 0 0 
0.0180469 0.0179531 0 0 0 0 0 0 
0.0180469 0.0195469 0 0 0 0 0 0 
0.0180469 0.0196406 0 0 0 0 0 0 
0.0180469 0.0197344 0 0 0 0 0 0 
0.0180469 0.0198281 0 0 0 0 0 0 
0.0180469 0.0202969 0 0 0 0 0 0 
0.0180469 0.0203906 0 0 0 0 0 0 
0.0180469 0.0204844 0 0 0 0 0 0 
0.0180469 0.0205781 0 0 0 0 0 0 
0.0180469 0.0206719 0 0 0 0 0 0 
0.0180469 0.0207656 0 0 0 0 0 0 
0.0180469 0.0208594 0 0 0 0 0 0 
0.0180469 0.0209531 0 0 0 0 0 0 
0.0355469 0.00492187 0 0 0 0 0 0 
0.0366406 0.00492187 0 0 0 0 0 0 
0.0355469 0.00501562 0 0 0 0 0 0 
0.0366406 0.00501562 0 0 0 0 0 0 
0.0399219 0.00492187 0 0 0 0 0 0 
0.0410156 0.00492187 0 0 0 0 0 0 
0.0399219 0.00501562 0 0 0 0 0 0 
0.0410156 0.00501562 0 0 0 0 0 0 
0.0421094 0.00510937 0 0 0 0 0 0 
0.0432031 0.00510937 0 0 0 0 0 0 
0.0421094 0.00520312 0 0 0 0 0 0 
0.0486719 0.00473437 0 0 0 0 0 0 
0.0486719 0.00482812 0 0 0 0 0 0 
0.0497656 0.00482812 0 0 0 0 0 0 
0.0508594 0.00473437 0 0 0 0 0 0 
0.0519531 0.00473437 0 0 0 0 0 0 
0.0508594 0.00482812 0 0 0 0 0 0 
0.0519531 0.00482812 0 0 0 0 0 0 
0.0464844 0.00492187 0 0 0 0 0 0 
0.0475781 0.00492187 0 0 0 0 0 0 
0.0464844 0.00501562 0 0 0 0 0 0 
0.0486719 0.00492187 0 0 0 0 0 0 
0.0497656 0.00492187 0 0 0 0 0 0 
0.0486719 0.00501562 0 0 0 0 0 0 
0.0497656 0.00501562 0 0 0 0 0 0 
0.0377344 0.00529687 0 0 0 0 0 0 
0.0388281 0.00529687 0 0 0 0 0 0 
0.0377344 0.00539062 0 0 0 0 0 0 
0.0355469 0.00548437 0 0 0 0 0 0 
0.0366406 0.00548437 0 0 0 0 0 0 
0.0366406 0.00557812 0 0 0 0 0 0 
0.0399219 0.00529687 0 0 0 0 0 0 
0.0410156 0.00529687 0 0 0 0 0 0 
0.0399219 0.00539062 0 0 0 0 0 0 
0.0432031 0.00529687 0 0 0 0 0 0 
0.0432031 0.00539062 0 0 0 0 0 0 
0.0399219 0.00548437 0 0 0 0 0 0 
0.0399219 0.00557812 0 0 0 0 0 0 
0.0355469 0.00585938 0 0 0 0 0 0 
0.0399219 0.00585938 0 0 0 0 0 0 
0.0399219 0.00595313 0 0 0 0 0 0 
0.0410156 0.00595313 0 0 0 0 0 0 
0.0432031 0.00585938 0 0 0 0 0 0 
0.0432031 0.00595313 0 0 0 0 0 0 
0.0442969 0.00548437 0 0 0 0 0 0 
0.0453906 0.00548437 0 0 0 0 0 0 
0.0442969 0.00557812 0 0 0 0 0 0 
0.0464844 0.00548437 0 0 0 0 0 0 
0.0475781 0.00548437 0 0 0 0 0 0 
0.0464844 0.00557812 0 0 0 0 0 0 
0.0475781 0.00557812 0 0 0 0 0 0 
0.0453906 0.00585938 0 0 0 0 0 0 
0.0453906 0.00595313 0 0 0 0 0 0 
0.0464844 0.00585938 0 0 0 0 0 0 
0.0475781 0.00585938 0 0 0 0 0 0 
0.0464844 0.00595313 0 0 0 0 0 0 
0.0486719 0.00754687 0 0 0 0 0 0 
0.0519531 0.00782813 0 0 0 0 0 0 
0.0442969 0.00801563 0 0 0 0 0 0 
0.0497656 0.00820313 0 0 0 0 0 0 
0.0185937 0.00121875 0 0 0 0 0 0 
0.0207812 0.00121875 0 0 0 0 0 0 
0.0185937 0.00140625 0 0 0 0 0 0 
0.0207812 0.00140625 0 0 0 0 0 0 
0.0273437 0.00121875 0 0 0 0 0 0 
0.0295312 0.00121875 0 0 0 0 0 0 
0.0317187 0.00121875 0 0 0 0 0 0 
0.0339062 0.00121875 0 0 0 0 0 0 
0.0317187 0.00140625 0 0 0 0 0 0 
0.0339062 0.00140625 0 0 0 0 0 0 
0.00109375 0.00159375 0 0 0 0 0 0 
0.00109375 0.00178125 0 0 0 0 0 0 
0.00328125 0.00178125 0 0 0 0 0 0 
0.00273437 0.000796875 0 0 0 0 0 0 
0.00382812 0.000796875 0 0 0 0 0 0 
0.00273437 0.000890625 0 0 0 0 0 0 
0.00382812 0.000890625 0 0 0 0 0 0 
0.00710937 0.00304688 0 0 0 0 0 0 
0.00820312 0.00304688 0 0 0 0 0 0 
0.00710937 0.00314063 0 0 0 0 0 0 
0.00820312 0.00314063 0 0 0 0 0 0 
0.0136719 0.00323438 0 0 0 0 0 0 
0.0147656 0.00323438 0 0 0 0 0 0 
0.0136719 0.00332813 0 0 0 0 0 0 
0.0147656 0.00332813 0 0 0 0 0 0 
0.0136719 0.00398438 0 0 0 0 0 0 
0.0147656 0.00398438 0 0 0 0 0 0 
0.0136719 0.00407813 0 0 0 0 0 0 
0.0147656 0.00407813 0 0 0 0 0 0 
0.0158594 0.00398438 0 0 0 0 0 0 
0.0169531 0.00398438 0 0 0 0 0 0 
0.0158594 0.00407813 0 0 0 0 0 0 
0.0169531 0.00407813 0 0 0 0 0 0 
0.0158594 0.00417188 0 0 0 0 0 0 
0.0158594 0.00426563 0 0 0 0 0 0 
0.0169531 0.00426563 0 0 0 0 0 0 
0.00929687 0.00642188 0 0 0 0 0 0 
0.0103906 0.00642188 0 0 0 0 0 0 
0.0103906 0.00651563 0 0 0 0 0 0 
0.0147656 0.00651563 0 0 0 0 0 0 
0.0103906 0.00923437 0 0 0 0 0 0 
0.0103906 0.00932812 0 0 0 0 0 0 
0.0224219 0.00342187 0 0 0 0 0 0 
0.0235156 0.00342187 0 0 0 0 0 0 
0.0224219 0.00351562 0 0 0 0 0 0 
0.0235156 0.00351562 0 0 0 0 0 0 
0.0267969 0.00342187 0 0 0 0 0 0 
0.0278906 0.00342187 0 0 0 0 0 0 
0.0267969 0.00351562 0 0 0 0 0 0 
0.0278906 0.00351562 0 0 0 0 0 0 
0.0246094 0.00398438 0 0 0 0 0 0 
0.0257031 0.00398438 0 0 0 0 0 0 
0.0246094 0.00407813 0 0 0 0 0 0 
0.0257031 0.00407813 0 0 0 0 0 0 
0.0180469 0.00417188 0 0 0 0 0 0 
0.0191406 0.00417188 0 0 0 0 0 0 
0.0180469 0.00426563 0 0 0 0 0 0 
0.0191406 0.00426563 0 0 0 0 0 0 
0.0224219 0.00435938 0 0 0 0 0 0 
0.0235156 0.00435938 0 0 0 0 0 0 
0.0224219 0.00445313 0 0 0 0 0 0 
0.0235156 0.00445313 0 0 0 0 0 0 
0.0311719 0.00398438 0 0 0 0 0 0 
0.0322656 0.00398438 0 0 0 0 0 0 
0.0311719 0.00407813 0 0 0 0 0 0 
0.0322656 0.00407813 0 0 0 0 0 0 
0.0289844 0.00417188 0 0 0 0 0 0 
0.0300781 0.00417188 0 0 0 0 0 0 
0.0289844 0.00426563 0 0 0 0 0 0 
0.0300781 0.00426563 0 0 0 0 0 0 
0.0311719 0.00417188 0 0 0 0 0 0 
0.0322656 0.00417188 0 0 0 0 0 0 
0.0311719 0.00426563 0 0 0 0 0 0 
0.0322656 0.00426563 0 0 0 0 0 0 
0.0333594 0.00435938 0 0 0 0 0 0 
0.0344531 0.00435938 0 0 0 0 0 0 
0.0333594 0.00445313 0 0 0 0 0 0 
0.0344531 0.00445313 0 0 0 0 0 0 
0.0180469 0.00614063 0 0 0 0 0 0 
0.0246094 0.00623438 0 0 0 0 0 0 
0.0246094 0.00632813 0 0 0 0 0 0 
0.0180469 0.00670313 0 0 0 0 0 0 
0.0267969 0.00604688 0 0 0 0 0 0 
0.0278906 0.00604688 0 0 0 0 0 0 
0.0311719 0.00623438 0 0 0 0 0 0 
0.0322656 0.00632813 0 0 0 0 0 0 
0.0267969 0.00642188 0 0 0 0 0 0 
0.0289844 0.00651563 0 0 0 0 0 0 
0.0300781 0.00651563 0 0 0 0 0 0 
0.0311719 0.00642188 0 0 0 0 0 0 
0.0311719 0.00651563 0 0 0 0 0 0 
0.0344531 0.00642188 0 0 0 0 0 0 
0.0344531 0.00651563 0 0 0 0 0 0 
0.0311719 0.00660938 0 0 0 0 0 0 
0.0333594 0.00660938 0 0 0 0 0 0 
0.0344531 0.00660938 0 0 0 0 0 0 
0.0333594 0.00670313 0 0 0 0 0 0 
0.0246094 0.00698437 0 0 0 0 0 0 
0.0257031 0.00698437 0 0 0 0 0 0 
0.0300781 0.00735937 0 0 0 0 0 0 
0.0180469 0.0150469 0 0 0 0 0 0 
0.0180469 0.0151406 0 0 0 0 0 0 
0.0180469 0.0154219 0 0 0 0 0 0 
0.0180469 0.0155156 0 0 0 0 0 0 
0.0180469 0.0159844 0 0 0 0 0 0 
0.0180469 0.0160781 0 0 0 0 0 0 
0.0180469 0.0163594 0 0 0 0 0 0 
0.0180469 0.0164531 0 0 0 0 0 0 
0.0180469 0.0180469 0 0 0 0 0 0 
0.0180469 0.0181406 0 0 0 0 0 0 
0.0180469 0.0184219 0 0 0 0 0 0 
0.0180469 0.0185156 0 0 0 0 0 0 
0.00710937 0.00173438 0 0 0 0 0 0 
0.00820312 0.00173438 0 0 0 0 0 0 
0.00710937 0.00182813 0 0 0 0 0 0 
0.00820312 0.00182813 0 0 0 0 0 0 
0.00710937 0.00210938 0 0 0 0 0 0 
0.00820312 0.00210938 0 0 0 0 0 0 
0.00710937 0.00220313 0 0 0 0 0 0 
0.00820312 0.00220313 0 0 0 0 0 0 
0.00710937 0.00248438 0 0 0 0 0 0 
0.00820312 0.00248438 0 0 0 0 0 0 
0.00710937 0.00257813 0 0 0 0 0 0 
0.00820312 0.00257813 0 0 0 0 0 0 
0.00710937 0.00267187 0 0 0 0 0 0 
0.00820312 0.00267187 0 0 0 0 0 0 
0.00710937 0.00276562 0 0 0 0 0 0 
0.00820312 0.00276562 0 0 0 0 0 0 
0.0136719 0.00454687 0 0 0 0 0 0 
0.0147656 0.00454687 0 0 0 0 0 0 
0.0147656 0.00464062 0 0 0 0 0 0 
0.0158594 0.00454687 0 0 0 0 0 0 
0.0169531 0.00454687 0 0 0 0 0 0 
0.0158594 0.00464062 0 0 0 0 0 0 
0.0169531 0.00464062 0 0 0 0 0 0 
0.0158594 0.00473437 0 0 0 0 0 0 
0.0169531 0.00473437 0 0 0 0 0 0 
0.0158594 0.00482812 0 0 0 0 0 0 
0.0169531 0.00482812 0 0 0 0 0 0 
0.0136719 0.00529687 0 0 0 0 0 0 
0.0147656 0.00529687 0 0 0 0 0 0 
0.0136719 0.00539062 0 0 0 0 0 0 
0.0147656 0.00539062 0 0 0 0 0 0 
0.0158594 0.00529687 0 0 0 0 0 0 
0.0169531 0.00529687 0 0 0 0 0 0 
0.0158594 0.00539062 0 0 0 0 0 0 
0.0169531 0.00539062 0 0 0 0 0 0 
0.0136719 0.00548437 0 0 0 0 0 0 
0.0147656 0.00557812 0 0 0 0 0 0 
0.0147656 0.00567187 0 0 0 0 0 0 
0.0136719 0.00576562 0 0 0 0 0 0 
0.0147656 0.00576562 0 0 0 0 0 0 
0.0103906 0.00867188 0 0 0 0 0 0 
0.0103906 0.00876563 0 0 0 0 0 0 
0.0180469 0.00473437 0 0 0 0 0 0 
0.0191406 0.00473437 0 0 0 0 0 0 
0.0180469 0.00482812 0 0 0 0 0 0 
0.0191406 0.00482812 0 0 0 0 0 0 
0.0224219 0.00454687 0 0 0 0 0 0 
0.0224219 0.00464062 0 0 0 0 0 0 
0.0235156 0.00464062 0 0 0 0 0 0 
0.0180469 0.00492187 0 0 0 0 0 0 
0.0191406 0.00492187 0 0 0 0 0 0 
0.0180469 0.00501562 0 0 0 0 0 0 
0.0191406 0.00501562 0 0 0 0 0 0 
0.0224219 0.00492187 0 0 0 0 0 0 
0.0235156 0.00492187 0 0 0 0 0 0 
0.0224219 0.00501562 0 0 0 0 0 0 
0.0235156 0.00501562 0 0 0 0 0 0 
0.0224219 0.00510937 0 0 0 0 0 0 
0.0224219 0.00520312 0 0 0 0 0 0 
0.0235156 0.00520312 0 0 0 0 0 0 
0.0289844 0.00454687 0 0 0 0 0 0 
0.0300781 0.00454687 0 0 0 0 0 0 
0.0289844 0.00464062 0 0 0 0 0 0 
0.0300781 0.00464062 0 0 0 0 0 0 
0.0267969 0.00473437 0 0 0 0 0 0 
0.0278906 0.00473437 0 0 0 0 0 0 
0.0267969 0.00482812 0 0 0 0 0 0 
0.0278906 0.00482812 0 0 0 0 0 0 
0.0289844 0.00473437 0 0 0 0 0 0 
0.0300781 0.00473437 0 0 0 0 0 0 
0.0289844 0.00482812 0 0 0 0 0 0 
0.0300781 0.00482812 0 0 0 0 0 0 
0.0311719 0.00454687 0 0 0 0 0 0 
0.0322656 0.00454687 0 0 0 0 0 0 
0.0311719 0.00464062 0 0 0 0 0 0 
0.0322656 0.00464062 0 0 0 0 0 0 
0.0267969 0.00492187 0 0 0 0 0 0 
0.0278906 0.00492187 0 0 0 0 0 0 
0.0267969 0.00501562 0 0 0 0 0 0 
0.0278906 0.00501562 0 0 0 0 0 0 
0.0289844 0.00492187 0 0 0 0 0 0 
0.0300781 0.00492187 0 0 0 0 0 0 
0.0300781 0.00501562 0 0 0 0 0 0 
0.0289844 0.00510937 0 0 0 0 0 0 
0.0300781 0.00510937 0 0 0 0 0 0 
0.0289844 0.00520312 0 0 0 0 0 0 
0.0300781 0.00520312 0 0 0 0 0 0 
0.0311719 0.00492187 0 0 0 0 0 0 
0.0322656 0.00492187 0 0 0 0 0 0 
0.0311719 0.00501562 0 0 0 0 0 0 
0.0322656 0.00501562 0 0 0 0 0 0 
0.0311719 0.00510937 0 0 0 0 0 0 
0.0322656 0.00510937 0 0 0 0 0 0 
0.0311719 0.00520312 0 0 0 0 0 0 
0.0322656 0.00520312 0 0 0 0 0 0 
0.0333594 0.00510937 0 0 0 0 0 0 
0.0344531 0.00510937 0 0 0 0 0 0 
0.0333594 0.00520312 0 0 0 0 0 0 
0.0344531 0.00520312 0 0 0 0 0 0 
0.0180469 0.00529687 0 0 0 0 0 0 
0.0191406 0.00529687 0 0 0 0 0 0 
0.0180469 0.00539062 0 0 0 0 0 0 
0.0191406 0.00539062 0 0 0 0 0 0 
0.0202344 0.00529687 0 0 0 0 0 0 
0.0213281 0.00529687 0 0 0 0 0 0 
0.0202344 0.00539062 0 0 0 0 0 0 
0.0246094 0.00529687 0 0 0 0 0 0 
0.0257031 0.00529687 0 0 0 0 0 0 
0.0246094 0.00539062 0 0 0 0 0 0 
0.0257031 0.00539062 0 0 0 0 0 0 
0.0246094 0.00585938 0 0 0 0 0 0 
0.0246094 0.00595313 0 0 0 0 0 0 
0.0257031 0.00595313 0 0 0 0 0 0 
0.0267969 0.00529687 0 0 0 0 0 0 
0.0278906 0.00529687 0 0 0 0 0 0 
0.0267969 0.00539062 0 0 0 0 0 0 
0.0333594 0.00529687 0 0 0 0 0 0 
0.0333594 0.00539062 0 0 0 0 0 0 
0.0344531 0.00539062 0 0 0 0 0 0 
0.0311719 0.00548437 0 0 0 0 0 0 
0.0322656 0.00548437 0 0 0 0 0 0 
0.0311719 0.00557812 0 0 0 0 0 0 
0.0322656 0.00557812 0 0 0 0 0 0 
0.0289844 0.00567187 0 0 0 0 0 0 
0.0300781 0.00567187 0 0 0 0 0 0 
0.0289844 0.00576562 0 0 0 0 0 0 
0.0300781 0.00576562 0 0 0 0 0 0 
0.0267969 0.00595313 0 0 0 0 0 0 
0.0278906 0.00595313 0 0 0 0 0 0 
0.0289844 0.00585938 0 0 0 0 0 0 
0.0300781 0.00585938 0 0 0 0 0 0 
0.0289844 0.00595313 0 0 0 0 0 0 
0.0300781 0.00595313 0 0 0 0 0 0 
0.0333594 0.00567187 0 0 0 0 0 0 
0.0333594 0.00576562 0 0 0 0 0 0 
0.0311719 0.00585938 0 0 0 0 0 0 
0.0311719 0.00595313 0 0 0 0 0 0 
0.0322656 0.00595313 0 0 0 0 0 0 
0.0180469 0.0139219 0 0 0 0 0 0 
0.0180469 0.0140156 0 0 0 0 0 0 
0.0180469 0.0165469 0 0 0 0 0 0 
0.0180469 0.0166406 0 0 0 0 0 0 
0.0180469 0.0169219 0 0 0 0 0 0 
0.0180469 0.0170156 0 0 0 0 0 0 
0.0180469 0.0174844 0 0 0 0 0 0 
0.0180469 0.0175781 0 0 0 0 0 0 
0.0180469 0.0176719 0 0 0 0 0 0 
0.0180469 0.0177656 0 0 0 0 0 0 
0.0180469 0.0199219 0 0 0 0 0 0 
0.0180469 0.0200156 0 0 0 0 0 0 
0.0180469 0.0201094 0 0 0 0 0 0 
0.0180469 0.0202031 0 0 0 0 0 0 
0.0388281 0.00454687 0 0 0 0 0 0 
0.0377344 0.00464062 0 0 0 0 0 0 
0.0388281 0.00464062 0 0 0 0 0 0 
0.0355469 0.00473437 0 0 0 0 0 0 
0.0366406 0.00473437 0 0 0 0 0 0 
0.0355469 0.00482812 0 0 0 0 0 0 
0.0366406 0.00482812 0 0 0 0 0 0 
0.0377344 0.00473437 0 0 0 0 0 0 
0.0388281 0.00473437 0 0 0 0 0 0 
0.0377344 0.00482812 0 0 0 0 0 0 
0.0388281 0.00482812 0 0 0 0 0 0 
0.0399219 0.00454687 0 0 0 0 0 0 
0.0410156 0.00454687 0 0 0 0 0 0 
0.0399219 0.00464062 0 0 0 0 0 0 
0.0410156 0.00464062 0 0 0 0 0 0 
0.0421094 0.00454687 0 0 0 0 0 0 
0.0432031 0.00454687 0 0 0 0 0 0 
0.0421094 0.00464062 0 0 0 0 0 0 
0.0432031 0.00464062 0 0 0 0 0 0 
0.0421094 0.00473437 0 0 0 0 0 0 
0.0432031 0.00473437 0 0 0 0 0 0 
0.0421094 0.00482812 0 0 0 0 0 0 
0.0432031 0.00482812 0 0 0 0 0 0 
0.0377344 0.00492187 0 0 0 0 0 0 