ITEM: TIMESTEP
510001
ITEM: NUMBER OF SURFS
38
ITEM: BOX BOUNDS oo ao pp
0 0.35
0 0.03
-0.1 0.1
ITEM: SURFS id v1x v1y v2x v2y 
1 0.00635 0.00159 0.00318 0.00159 
17 0.11009 0.0127 0.11009 0.02223 
33 0.13169 0.00327 0.13216 0.00327 
2 0.00635 0.0127 0.00635 0.00159 
18 0.11009 0.02223 0.13168 0.02223 
34 0.13169 0.00278 0.13169 0.00327 
3 0.01905 0.0127 0.00635 0.0127 
19 0.13168 0.02223 0.13168 0.0045 
35 0.13216 0.00399 0.13169 0.00399 
4 0.01905 0.02159 0.01905 0.0127 
20 0.13168 0.0045 0.13009 0.0045 
36 0.13216 0.00448 0.13216 0.00399 
5 0.0635 0.02159 0.01905 0.02159 
21 0.13009 0.0045 0.13009 0.0127 
37 0.13169 0.00448 0.13216 0.00448 
6 0.0635 0.0035 0.0635 0.02159 
22 0.13009 0.0127 0.11009 0.0127 
38 0.13169 0.00399 0.13169 0.00448 
7 0.06509 0.0035 0.0635 0.0035 
23 0.13216 0.00036 0.13169 0.00036 
8 0.06509 0.0254 0.06509 0.0035 
24 0.13216 0.00085 0.13216 0.00036 
9 0 0.0254 0.06509 0.0254 
25 0.13169 0.00085 0.13216 0.00085 
10 0 0 0 0.0254 
26 0.13169 0.00036 0.13169 0.00085 
11 0.00318 0 0 0 
27 0.13216 0.00157 0.13169 0.00157 
12 0.00318 0.00159 0.00318 0 
28 0.13216 0.00206 0.13216 0.00157 
13 0.00953 0 0.00953 0.00953 
29 0.13169 0.00206 0.13216 0.00206 
14 0.00953 0.00953 0.0127 0.00953 
30 0.13169 0.00157 0.13169 0.00206 
15 0.0127 0.00953 0.0127 0 
31 0.13216 0.00278 0.13169 0.00278 
16 0.0127 0 0.00953 0 
32 0.13216 0.00327 0.13216 0.00278 
