ITEM: TIMESTEP
500000
ITEM: NUMBER OF CELLS
31303
ITEM: BOX BOUNDS oo ao pp
0 0.12
0 0.03
-0.1 0.1
ITEM: CELLS xc yc f_out[1] f_out[2] f_out[3] f_out[4] f_out[5] f_out[6] 
0.003 0.00375 0 0 0 0 0 0 
0.003 0.00525 0 0 0 0 0 0 
0.003 0.00675 0 0 0 0 0 0 
0.003 0.00825 0 0 0 0 0 0 
0.003 0.00975 0 0 0 0 0 0 
0.003 0.01125 0 0 0 0 0 0 
0.003 0.01275 0 0 0 0 0 0 
0.003 0.01425 0 0 0 0 0 0 
0.003 0.01575 0 0 0 0 0 0 
0.003 0.01725 0 0 0 0 0 0 
0.003 0.01875 0 0 0 0 0 0 
0.003 0.02025 0 0 0 0 0 0 
0.003 0.02175 0 0 0 0 0 0 
0.003 0.02325 0 0 0 0 0 0 
0.027 0.02325 0 0 0 0 0 0 
0.003 0.02475 0 0 0 0 0 0 
0.027 0.02475 0 0 0 0 0 0 
0.003 0.02625 0 0 0 0 0 0 
0.027 0.02625 0 0 0 0 0 0 
0.003 0.02775 0 0 0 0 0 0 
0.027 0.02775 0 0 0 0 0 0 
0.003 0.02925 0 0 0 0 0 0 
0.027 0.02925 0 0 0 0 0 0 
0.009 0.01425 0 0 0 0 0 0 
0.009 0.01575 0 0 0 0 0 0 
0.009 0.01725 0 0 0 0 0 0 
0.009 0.01875 0 0 0 0 0 0 
0.009 0.02025 0 0 0 0 0 0 
0.009 0.02175 0 0 0 0 0 0 
0.009 0.02325 0 0 0 0 0 0 
0.009 0.02475 0 0 0 0 0 0 
0.009 0.02625 0 0 0 0 0 0 
0.009 0.02775 0 0 0 0 0 0 
0.009 0.02925 0 0 0 0 0 0 
0.015 0.01425 0 0 0 0 0 0 
0.015 0.01575 0 0 0 0 0 0 
0.015 0.01725 0 0 0 0 0 0 
0.015 0.01875 0 0 0 0 0 0 
0.015 0.02025 0 0 0 0 0 0 
0.015 0.02175 0 0 0 0 0 0 
0.015 0.02325 0 0 0 0 0 0 
0.015 0.02475 0 0 0 0 0 0 
0.015 0.02625 0 0 0 0 0 0 
0.015 0.02775 0 0 0 0 0 0 
0.015 0.02925 0 0 0 0 0 0 
0.021 0.02325 0 0 0 0 0 0 
0.021 0.02475 0 0 0 0 0 0 
0.021 0.02625 0 0 0 0 0 0 
0.021 0.02775 0 0 0 0 0 0 
0.021 0.02925 0 0 0 0 0 0 
0.0015 0.000375 0 0 0 0 0 0 
0.0015 0.001125 0 0 0 0 0 0 
0.0015 0.001875 0 0 0 0 0 0 
0.0015 0.002625 0 0 0 0 0 0 
0.0045 0.002625 0 0 0 0 0 0 
0.0255 0.022125 0 0 0 0 0 0 
0.0285 0.022125 0 0 0 0 0 0 
0.0105 0.000375 2.12766 4.49504e+21 2.9892e-05 6.38644 5.37715 -1.00021 
0.0075 0.013125 0 0 0 0 0 0 
0.0105 0.013125 0 0 0 0 0 0 
0.0135 0.013125 0 0 0 0 0 0 
0.0165 0.013125 0 0 0 0 0 0 
0.0195 0.022125 0 0 0 0 0 0 
0.0225 0.022125 0 0 0 0 0 0 
0.0135 0.000375 2.15932 2.08147e+21 1.38418e-05 4.5287 -0.0721226 -2.55207 
0.0165 0.000375 1.92026 2.20318e+21 1.46511e-05 1.25142 0.660506 1.02195 
0.00375 0.0001875 1.98841 1.04774e+22 6.96749e-05 33.4523 -3.78242 2.15589 
0.00525 0.0001875 1.79319 7.7413e+21 5.14796e-05 44.8746 -4.8597 -0.233416 
0.00375 0.0020625 0 0 0 0 0 0 
0.00525 0.0020625 0 0 0 0 0 0 
0.00675 0.0001875 1.79759 5.31177e+21 3.53232e-05 53.0846 -3.18556 0.404625 
0.00825 0.0001875 2.18201 3.75747e+21 2.49872e-05 25.7716 2.61379 -1.69361 
0.00675 0.0005625 1.75162 5.3168e+21 3.53567e-05 50.0376 1.249 1.10648 
0.00825 0.0005625 1.981 3.83292e+21 2.54889e-05 23.2859 6.49171 1.50661 
0.01125 0.0046875 0 0 0 0 0 0 
0.01125 0.0050625 0 0 0 0 0 0 
0.01125 0.0054375 0 0 0 0 0 0 
0.01125 0.0058125 0 0 0 0 0 0 
0.01125 0.0061875 0 0 0 0 0 0 
0.01125 0.0065625 0 0 0 0 0 0 
0.01125 0.0069375 0 0 0 0 0 0 
0.01125 0.0073125 0 0 0 0 0 0 
0.01125 0.0076875 0 0 0 0 0 0 
0.01125 0.0080625 0 0 0 0 0 0 
0.01125 0.0084375 0 0 0 0 0 0 
0.01125 0.0088125 0 0 0 0 0 0 
0.01125 0.0091875 0 0 0 0 0 0 
0.0255 0.000375 1.99352 2.18809e+21 1.45508e-05 1.00734 -0.626624 -2.15495 
0.01275 0.0016875 1.98246 2.09377e+21 1.39236e-05 -1.07306 -2.3845 0.620476 
0.01275 0.0020625 2.01672 2.16837e+21 1.44196e-05 3.07124 1.49404 -1.2009 
0.01275 0.0024375 1.93752 2.1003e+21 1.3967e-05 -1.87921 0.829679 0.841731 
0.003375 0.00046875 1.8284 1.12144e+22 7.4576e-05 24.1303 -8.9291 -1.59291 
0.004125 0.00046875 2.05341 9.65776e+21 6.42241e-05 31.2653 2.33692 2.05272 
0.003375 0.00065625 1.85791 1.11191e+22 7.39422e-05 26.0002 2.11354 -0.91032 
0.004125 0.00065625 1.88632 1.03304e+22 6.86968e-05 29.178 -3.58029 3.42959 
0.003375 0.00084375 1.94649 1.02367e+22 6.80738e-05 22.7989 -0.5881 2.04174 
0.004125 0.00084375 1.89083 9.93944e+21 6.60973e-05 30.8481 -0.570799 -2.15644 
0.003375 0.00103125 1.95195 1.10614e+22 7.35581e-05 26.0921 -7.18264 3.6313 
0.004125 0.00103125 1.93898 1.00089e+22 6.65595e-05 31.9465 -1.87028 1.42186 
0.004875 0.00084375 1.92198 8.71881e+21 5.79801e-05 32.2056 0.131442 0.268719 
0.005625 0.00084375 1.92033 7.01529e+21 4.66517e-05 36.3978 4.76442 1.46351 
0.004875 0.00103125 1.89329 8.71393e+21 5.79476e-05 34.8261 -2.43758 -1.74879 
0.005625 0.00103125 1.90506 7.24332e+21 4.81681e-05 36.3668 3.19254 -0.884913 
0.003375 0.00121875 1.92363 1.16323e+22 7.73549e-05 23.836 -3.60947 0.386099 
0.004875 0.00121875 1.8997 8.46911e+21 5.63196e-05 25.6116 0.772079 0.419599 
0.005625 0.00121875 1.9102 6.42612e+21 4.27337e-05 35.0584 -1.58905 -0.412855 
0.005625 0.00140625 2.08595 7.35599e+21 4.89173e-05 23.8204 -6.07451 0.286667 
0.025875 0.00553125 1.90152 2.22006e+21 1.47634e-05 1.93332 -4.41041 1.18747 
0.026625 0.00553125 2.09002 2.2487e+21 1.49539e-05 -0.26555 -0.844809 -0.803361 
0.028125 0.00571875 2.08082 2.15518e+21 1.4332e-05 0.703211 0.996679 -0.686303 
0.028125 0.00628125 2.03417 2.07209e+21 1.37794e-05 3.36444 -0.887306 -1.04636 
0.025125 0.0216562 1.94704 2.33541e+21 1.55305e-05 1.32441 0.426603 -1.73723 
0.025875 0.0216562 2.01842 2.246e+21 1.49359e-05 -0.101714 2.23971 -0.468238 
0.026625 0.0216562 1.96721 2.12798e+21 1.41511e-05 2.10489 2.56827 1.36629 
0.027375 0.0216562 2.07121 2.18878e+21 1.45554e-05 -2.92737 -1.25234 -5.94543 
0.028125 0.0216562 1.91666 2.14228e+21 1.42462e-05 1.06805 0.742706 4.45512 
0.028875 0.0216562 1.9897 2.00638e+21 1.33424e-05 3.52318 0.385458 4.36732 
0.029625 0.0216562 1.9491 2.28892e+21 1.52213e-05 -0.233473 4.64165 -3.01831 
0.006375 0.00084375 1.76018 6.00927e+21 3.99617e-05 53.7592 1.86727 0.423724 
0.007125 0.00084375 1.8723 4.62768e+21 3.0774e-05 48.4823 8.74078 -2.79296 
0.006375 0.00103125 1.72011 5.50931e+21 3.66369e-05 43.8742 8.05789 -4.22654 
0.007125 0.00103125 1.78877 4.29112e+21 2.85359e-05 51.5569 14.9491 -0.521696 
0.006375 0.00121875 1.83162 5.3582e+21 3.5632e-05 42.7198 9.01743 -0.300082 
0.007125 0.00121875 1.70854 4.02097e+21 2.67395e-05 41.9583 17.66 -4.49683 
0.006375 0.00140625 1.83089 4.98984e+21 3.31824e-05 37.8904 8.51676 4.30385 
0.007125 0.00140625 1.94467 3.50094e+21 2.32812e-05 32.4047 17.6155 4.33818 
0.006375 0.00196875 2.04288 2.69469e+21 1.79197e-05 -7.64869 7.92028 -5.60325 
0.007125 0.00196875 2.04802 3.20776e+21 2.13316e-05 11.2085 14.6172 -1.39633 
0.006375 0.00215625 2.0352 2.64735e+21 1.76049e-05 4.68549 13.6417 5.97936 
0.007125 0.00215625 2.10758 2.96556e+21 1.9721e-05 2.38258 8.98719 -0.435469 
0.006375 0.00234375 1.95657 2.71624e+21 1.8063e-05 -3.6605 0.175013 1.89021 
0.007125 0.00234375 1.9562 2.79109e+21 1.85608e-05 7.09086 16.0935 -1.10512 
0.006375 0.00253125 2.0126 2.63241e+21 1.75055e-05 -2.16436 6.73509 -1.5332 
0.007125 0.00253125 1.93843 3.03593e+21 2.0189e-05 -3.05481 14.6893 -0.590229 
0.007875 0.00234375 1.94474 3.2112e+21 2.13545e-05 4.58772 19.6428 -1.29854 
0.008625 0.00234375 2.04226 3.17257e+21 2.10976e-05 3.28265 15.739 -1.5456 
0.007875 0.00253125 1.97582 3.11642e+21 2.07242e-05 5.46915 13.864 2.71504 
0.008625 0.00253125 1.92347 3.52776e+21 2.34596e-05 -0.923908 20.4219 -3.15778 
0.007875 0.00346875 2.05478 2.96258e+21 1.97012e-05 -2.3836 9.58595 -0.0109758 
0.008625 0.00346875 1.89852 2.95932e+21 1.96795e-05 4.28867 11.151 -0.849031 
0.007875 0.00365625 2.01044 2.9159e+21 1.93907e-05 -2.86454 11.5595 -0.177647 
0.008625 0.00365625 1.87899 2.78589e+21 1.85262e-05 -2.47106 9.35405 -2.52481 
0.007875 0.00384375 1.86793 2.90616e+21 1.9326e-05 -1.61081 10.2254 -3.82468 
0.008625 0.00384375 1.9301 2.92972e+21 1.94826e-05 -4.82701 15.9923 2.51796 
0.008625 0.00403125 1.931 2.73449e+21 1.81844e-05 0.353362 11.5205 -1.91202 
0.006375 0.00459375 1.82369 2.71624e+21 1.8063e-05 -1.37197 6.48217 -4.08933 
0.006375 0.00478125 1.9079 2.84052e+21 1.88894e-05 -5.60434 2.51342 -0.345753 
0.007875 0.00459375 1.94999 2.67313e+21 1.77763e-05 -6.52645 7.16556 -3.08726 
0.008625 0.00459375 1.92751 2.7495e+21 1.82842e-05 0.560928 8.21693 1.36603 
0.006375 0.00571875 2.0437 2.74964e+21 1.82851e-05 5.84562 1.60228 1.48378 
0.006375 0.00590625 2.01341 2.76655e+21 1.83975e-05 1.69602 -0.487954 0.626159 
0.006375 0.00609375 1.98896 2.79982e+21 1.86188e-05 -3.8507 4.35819 4.37663 
0.006375 0.00628125 2.028 2.73651e+21 1.81978e-05 -0.920901 4.26583 0.391114 
0.006375 0.00646875 1.96298 2.78185e+21 1.84993e-05 -1.32502 6.99896 0.184586 
0.006375 0.00665625 1.90305 2.63973e+21 1.75542e-05 1.58892 4.23586 -1.06463 
0.006375 0.00721875 1.9909 2.71037e+21 1.80239e-05 1.41495 4.52668 2.53804 
0.006375 0.00740625 2.08109 2.6131e+21 1.73771e-05 -0.29115 4.32719 -0.317463 
0.006375 0.00778125 1.9634 2.55262e+21 1.69749e-05 -0.395304 6.2605 1.25259 
0.006375 0.00796875 2.13471 2.66298e+21 1.77088e-05 -1.3238 0.52065 -2.12544 
0.006375 0.00853125 1.90863 2.56949e+21 1.70871e-05 1.35281 5.19248 -2.02002 
0.010125 0.00946875 1.97011 2.33237e+21 1.55102e-05 1.67866 -2.04148 0.511689 
0.010875 0.00946875 1.92865 2.30501e+21 1.53283e-05 1.88075 4.14198 1.09339 
0.011625 0.00946875 2.02929 2.40761e+21 1.60106e-05 3.54972 1.2317 -4.11349 
0.016875 0.00384375 1.937 2.08172e+21 1.38434e-05 1.05111 -1.23468 -5.7661 
0.017625 0.00384375 2.09322 2.10822e+21 1.40196e-05 3.1385 3.87708 1.73122 
0.016875 0.00403125 2.04983 2.21792e+21 1.47491e-05 -0.252173 -4.51439 1.50085 
0.017625 0.00403125 1.88161 2.20949e+21 1.46931e-05 0.230031 0.0975898 4.35942 
0.015375 0.00459375 2.06103 2.00054e+21 1.33036e-05 1.25312 4.14025 -3.87952 
0.016125 0.00459375 2.02736 2.12126e+21 1.41064e-05 2.14998 -0.402061 -1.33951 
0.015375 0.00478125 2.04759 2.00967e+21 1.33643e-05 0.763816 -2.59548 -1.09569 
0.016125 0.00478125 2.00689 2.07121e+21 1.37735e-05 3.50185 1.23047 -2.23318 
0.015375 0.00590625 2.059 2.22857e+21 1.482e-05 2.5248 -0.335554 -1.22695 
0.016125 0.00590625 1.95182 2.20749e+21 1.46798e-05 0.570849 -0.702265 0.969868 
0.014625 0.00646875 1.96169 2.12401e+21 1.41246e-05 1.06709 1.24992 -1.34179 
0.012375 0.00946875 1.93857 2.2941e+21 1.52558e-05 -0.932457 -0.727832 1.63669 
0.019875 0.00459375 2.00263 2.21734e+21 1.47453e-05 2.1153 -1.03467 -0.548878 
0.020625 0.00478125 1.97256 2.31502e+21 1.53949e-05 4.344 -2.30929 -2.06365 
0.022875 0.00459375 1.96892 2.07937e+21 1.38278e-05 5.78428 0.136038 -1.99754 
0.023625 0.00459375 2.03881 2.23705e+21 1.48764e-05 2.75101 -0.732856 -6.4493 
0.022875 0.00478125 1.96132 2.22034e+21 1.47652e-05 2.27502 -0.0676673 -0.199391 
0.023625 0.00478125 2.04945 2.24638e+21 1.49384e-05 1.38614 0.12392 -0.058484 
0.023625 0.00684375 1.93359 2.14323e+21 1.42525e-05 1.48399 0.28541 0.220859 
0.018375 0.0158438 0 0 0 0 0 0 
0.018375 0.0160313 0 0 0 0 0 0 
0.018375 0.0173437 0 0 0 0 0 0 
0.018375 0.0175312 0 0 0 0 0 0 
0.018375 0.0199687 0 0 0 0 0 0 
0.018375 0.0201562 0 0 0 0 0 0 
0.019875 0.0216562 1.94953 2.21739e+21 1.47456e-05 -2.11454 -1.30517 0.168809 
0.020625 0.0216562 1.99018 1.87047e+21 1.24387e-05 -0.557112 3.454 -2.05837 
0.021375 0.0216562 1.89475 2.10294e+21 1.39846e-05 -1.4531 -4.7073 3.56122 
0.022125 0.0216562 2.02168 2.09221e+21 1.39132e-05 0.262049 3.0984 5.00707 
0.022875 0.0216562 1.98899 2.1101e+21 1.40321e-05 -3.15985 -2.06863 0.410721 
0.023625 0.0216562 2.05338 2.12798e+21 1.41511e-05 4.29197 2.80709 1.84546 
0.00975 0.0016875 1.93555 3.79154e+21 2.52138e-05 4.93863 13.523 0.61149 
0.01125 0.0016875 0 0 0 0 0 0 
0.01125 0.0020625 0 0 0 0 0 0 
0.01125 0.0024375 0 0 0 0 0 0 
0.00975 0.0028125 1.99527 3.2743e+21 2.17741e-05 -0.120946 13.3465 1.8273 
0.01125 0.0028125 0 0 0 0 0 0 
0.01125 0.0039375 0 0 0 0 0 0 
0.01125 0.0043125 0 0 0 0 0 0 
0.01575 0.0009375 2.08158 2.24241e+21 1.4912e-05 1.45305 1.00226 -2.95385 
0.01725 0.0009375 1.9837 2.20921e+21 1.46913e-05 0.276078 1.86613 1.86488 
0.004875 0.00046875 1.75607 9.03e+21 6.00495e-05 40.6817 -0.577754 -3.59684 
0.005625 0.00046875 1.84144 7.43647e+21 4.94525e-05 38.1785 2.55227 -0.0196778 
0.004875 0.00065625 1.91143 8.623e+21 5.73429e-05 36.9274 -0.639545 5.13901 
0.005625 0.00065625 1.81105 7.27781e+21 4.83974e-05 48.4648 2.2546 -3.55494 
0.003375 0.00159375 2.07287 1.22089e+22 8.11894e-05 16.1012 3.08595 0.074352 
0.004125 0.00159375 2.02691 9.73663e+21 6.47486e-05 11.6409 0.828305 -0.889683 
0.003375 0.00178125 0 0 0 0 0 0 
0.004125 0.00178125 0 0 0 0 0 0 
0.024375 0.00384375 2.0502 2.09938e+21 1.39609e-05 3.31185 -1.98862 0.0150183 
0.025125 0.00384375 1.97496 2.18477e+21 1.45287e-05 3.51849 0.824913 1.44478 
0.024375 0.00403125 1.97696 2.41163e+21 1.60374e-05 0.398743 0.539479 0.691676 
0.025125 0.00403125 1.92689 2.0635e+21 1.37223e-05 2.01966 -1.28172 1.59222 
0.028125 0.00421875 2.00848 2.10325e+21 1.39866e-05 4.51103 1.61163 -0.18525 
0.027375 0.00440625 1.97898 2.20896e+21 1.46896e-05 0.81362 -0.163478 -1.14045 
0.028125 0.00440625 2.12382 2.08053e+21 1.38355e-05 -1.08602 -4.27011 1.13896 
0.028875 0.00421875 2.01548 2.03618e+21 1.35406e-05 2.97109 1.73027 -2.1809 
0.029625 0.00421875 2.02537 2.2347e+21 1.48607e-05 -0.0666946 0.179103 -4.2962 
0.028875 0.00440625 2.04297 2.12676e+21 1.4143e-05 1.72885 -3.40662 -0.414278 
0.029625 0.00440625 1.89518 2.11906e+21 1.40917e-05 0.479157 2.19528 -0.335024 
0.024375 0.00459375 2.05827 2.02517e+21 1.34674e-05 1.51429 -0.791327 2.72272 
0.025125 0.00459375 2.01412 2.08677e+21 1.3877e-05 2.45844 -3.59347 -1.87602 
0.025125 0.00478125 2.03527 2.09015e+21 1.38995e-05 0.513903 -1.76911 -1.22598 
0.025875 0.00496875 2.01385 2.05e+21 1.36325e-05 1.8551 4.75168 0.39373 
0.026625 0.00496875 1.9221 2.18211e+21 1.4511e-05 -2.36099 -1.95922 0.616877 
0.025875 0.00515625 2.06899 2.17958e+21 1.44942e-05 1.69152 -0.359871 -1.18322 
0.026625 0.00515625 2.05484 2.12251e+21 1.41147e-05 1.55724 3.88117 -0.398303 
0.028875 0.00459375 1.97703 1.95126e+21 1.29759e-05 2.22093 -0.558791 -0.56227 
0.029625 0.00459375 2.01525 2.16314e+21 1.43849e-05 0.79478 -1.437 0.469924 
0.028875 0.00478125 2.05209 2.24401e+21 1.49227e-05 0.254351 -0.0700369 -1.38024 
0.029625 0.00478125 1.97973 2.10672e+21 1.40097e-05 1.25201 1.08015 1.08757 
0.028875 0.00496875 2.01558 2.12744e+21 1.41475e-05 -2.14231 -0.356276 -0.521027 
0.028875 0.00515625 1.93473 2.15544e+21 1.43336e-05 5.0681 2.91843 1.81283 
0.024375 0.00534375 1.98883 2.08404e+21 1.38589e-05 1.32433 -3.62195 -1.37774 
0.025125 0.00534375 1.87805 2.10099e+21 1.39716e-05 1.71281 0.273899 0.153696 
0.025875 0.00571875 1.91969 2.17893e+21 1.44899e-05 4.32057 1.4861 3.66183 
0.026625 0.00571875 1.98935 2.15321e+21 1.43188e-05 4.16031 0.359846 1.43076 
0.025875 0.00590625 2.04005 2.07335e+21 1.37878e-05 -1.09453 -0.383208 3.13375 
0.026625 0.00590625 1.94044 2.23623e+21 1.48709e-05 -3.28234 -2.40058 0.943267 
0.028125 0.00534375 1.99439 2.20688e+21 1.46758e-05 2.67412 1.12098 0.979265 
0.028875 0.00534375 1.96335 2.12852e+21 1.41547e-05 1.09629 -2.88018 0.280948 
0.029625 0.00534375 1.92909 2.21324e+21 1.4718e-05 2.22345 0.193274 1.85711 
0.024375 0.00609375 2.03361 2.186e+21 1.45369e-05 0.259567 2.08104 -1.61949 
0.007875 0.00121875 2.11231 4.0024e+21 2.66159e-05 29.6452 12.7539 -0.164961 
0.008625 0.00121875 2.18474 3.68666e+21 2.45163e-05 13.1907 12.216 0.850942 
0.007875 0.00140625 1.96221 3.73433e+21 2.48333e-05 29.2167 20.1074 -6.55504 
0.008625 0.00140625 2.01412 3.62971e+21 2.41376e-05 13.7461 17.7686 -0.981104 
0.007875 0.00159375 1.91734 3.3021e+21 2.1959e-05 16.4311 22.2605 2.28897 
0.008625 0.00159375 2.04771 3.57195e+21 2.37535e-05 4.65517 18.3079 0.62941 
0.007875 0.00178125 1.91775 3.41198e+21 2.26897e-05 13.8628 20.5728 -2.9904 
0.008625 0.00178125 2.02491 3.62801e+21 2.41263e-05 9.92742 15.7261 2.48309 
0.007875 0.00196875 1.9572 3.27099e+21 2.17521e-05 8.28363 15.7755 -2.91459 
0.008625 0.00196875 1.99473 3.50669e+21 2.33195e-05 1.48284 12.0127 -0.075902 
0.007875 0.00215625 1.9896 3.16502e+21 2.10474e-05 7.3938 14.9403 4.85923 
0.008625 0.00215625 2.06745 3.35922e+21 2.23388e-05 1.73887 17.1856 -0.0591336 
0.006375 0.00271875 1.9586 2.66941e+21 1.77516e-05 -11.4185 -1.0323 5.53186 
0.007125 0.00271875 1.92847 2.77661e+21 1.84644e-05 -0.0104737 14.1858 0.116026 
0.006375 0.00290625 1.96371 2.67974e+21 1.78202e-05 8.01689 0.983294 -1.23439 
0.007125 0.00290625 2.02835 2.8506e+21 1.89565e-05 -2.2592 7.18298 -3.15934 
0.007875 0.00271875 1.98694 3.02637e+21 2.01254e-05 -2.52729 17.6069 -0.879945 
0.007875 0.00290625 1.95739 3.11541e+21 2.07174e-05 5.14548 13.061 -2.33502 
0.008625 0.00290625 1.99363 3.03363e+21 2.01736e-05 -0.352248 16.0779 -0.0621314 
0.007875 0.00309375 1.91272 2.98147e+21 1.98268e-05 -1.44255 14.2161 -2.48486 
0.008625 0.00309375 1.98347 3.18999e+21 2.12134e-05 -1.44047 15.1254 -0.181573 
0.007875 0.00328125 2.10364 2.9939e+21 1.99095e-05 0.43747 12.0343 -3.44139 
0.008625 0.00328125 1.94332 3.0284e+21 2.01388e-05 -0.0608117 15.2237 0.0687873 
0.006375 0.00384375 2.08162 2.8377e+21 1.88707e-05 -1.62675 2.18996 0.480573 
0.007125 0.00384375 1.95704 2.85905e+21 1.90127e-05 0.650971 7.24361 -0.492811 
0.006375 0.00403125 1.99309 2.59517e+21 1.72579e-05 -2.84879 4.96169 -0.0452333 
0.007125 0.00403125 1.89972 2.85241e+21 1.89685e-05 -0.739987 10.025 -0.906056 
0.006375 0.00421875 2.03219 2.87721e+21 1.91334e-05 -2.0552 5.01486 0.278545 
0.006375 0.00440625 1.99597 2.82701e+21 1.87996e-05 -2.53669 7.08769 2.20703 
0.010125 0.00834375 0 0 0 0 0 0 
0.010125 0.00853125 0 0 0 0 0 0 
0.010125 0.00909375 0 0 0 0 0 0 
0.010125 0.00928125 0 0 0 0 0 0 
0.015375 0.00346875 2.05737 2.15994e+21 1.43636e-05 -4.47878 2.50928 -0.713728 
0.016125 0.00346875 2.05246 2.111e+21 1.40382e-05 -0.529403 -0.83116 -0.661843 
0.015375 0.00365625 2.04457 2.21324e+21 1.4718e-05 4.64385 2.01629 -0.260163 
0.016125 0.00365625 1.97781 2.17919e+21 1.44916e-05 -1.22193 -2.70204 -4.62964 
0.015375 0.00421875 1.85381 2.20519e+21 1.46645e-05 -0.355523 0.258329 0.901758 
0.016125 0.00421875 1.96172 2.04959e+21 1.36298e-05 0.506607 0.36619 -0.0439698 
0.015375 0.00440625 2.0404 2.23721e+21 1.48774e-05 2.37521 0.982216 -3.31524 
0.016125 0.00440625 2.00287 2.03943e+21 1.35622e-05 -0.429272 -2.62397 -0.924599 
0.013875 0.00459375 1.97775 2.10155e+21 1.39753e-05 -0.622393 2.22596 2.38053 
0.014625 0.00459375 2.03334 2.21488e+21 1.47289e-05 -1.37216 0.879373 0.961793 
0.014625 0.00478125 1.87642 2.25584e+21 1.50014e-05 -1.25816 -0.910355 4.5045 
0.017625 0.00459375 1.96503 2.20995e+21 1.46962e-05 3.80505 -1.02314 -3.8231 
0.016875 0.00478125 2.03958 2.05701e+21 1.36791e-05 3.13401 -4.14758 1.78899 
0.016125 0.00496875 2.04337 2.16616e+21 1.4405e-05 0.212398 -1.31584 -4.17328 
0.015375 0.00515625 1.96234 2.12251e+21 1.41147e-05 1.16392 -1.28006 -2.49529 
0.016125 0.00515625 2.01035 2.28055e+21 1.51656e-05 -2.76721 1.37485 -2.44733 
0.017625 0.00496875 2.05259 2.27322e+21 1.51169e-05 3.21009 -3.66116 -4.37515 
0.016875 0.00515625 1.98081 2.07203e+21 1.3779e-05 2.52404 -1.7779 3.23035 
0.015375 0.00534375 1.97008 2.24712e+21 1.49434e-05 -3.127 -0.746775 0.990561 
0.016125 0.00534375 1.95945 2.11581e+21 1.40701e-05 1.08871 -1.38123 0.0923819 
0.015375 0.00553125 2.06425 2.30395e+21 1.53213e-05 -2.86316 0.382531 -0.778643 
0.016125 0.00609375 2.00563 2.15071e+21 1.43022e-05 2.38206 0.746744 -1.97297 
0.012375 0.00871875 2.00406 2.16131e+21 1.43727e-05 -6.52221 11.6703 1.83121 
0.012375 0.00890625 1.90255 1.75365e+21 1.16617e-05 -10.8902 1.32349 -3.77637 
0.012375 0.00909375 1.91863 2.16553e+21 1.44008e-05 5.17291 -2.53 5.29837 
0.012375 0.00928125 2.11002 2.15836e+21 1.43531e-05 -3.10946 8.94842 9.65622 
0.019875 0.00421875 2.00474 2.07105e+21 1.37725e-05 4.14692 -2.84775 4.19792 
0.020625 0.00421875 1.998 2.28567e+21 1.51997e-05 3.44281 -0.920408 2.71561 
0.019875 0.00440625 1.95533 2.25776e+21 1.50141e-05 -0.778436 -1.21085 -4.23567 
0.020625 0.00440625 2.01441 2.10621e+21 1.40063e-05 -0.181029 -2.75442 1.78474 
0.018375 0.00496875 1.99669 2.18894e+21 1.45565e-05 -1.60964 -1.49133 -2.15798 
0.019125 0.00496875 2.06322 2.18211e+21 1.4511e-05 -0.737063 1.80591 -1.98856 
0.018375 0.00515625 2.0189 2.19494e+21 1.45964e-05 0.326448 -1.26761 0.312525 
0.020625 0.00496875 1.94188 2.01127e+21 1.3375e-05 1.46986 -3.89354 -4.12456 
0.019875 0.00515625 1.99563 2.10934e+21 1.40271e-05 0.480028 1.08919 2.17336 
0.020625 0.00515625 1.99174 2.31128e+21 1.537e-05 0.350573 -0.794151 -0.229834 
0.021375 0.00534375 1.96254 2.15182e+21 1.43096e-05 4.35762 -3.3607 6.19774 
0.022125 0.00553125 2.00055 2.02772e+21 1.34843e-05 0.887332 -2.25663 0.81093 
0.022875 0.00534375 1.98531 2.14334e+21 1.42532e-05 2.32912 3.18185 0.762695 
0.023625 0.00534375 1.98751 2.11793e+21 1.40842e-05 4.72526 -0.0293197 -1.3185 
0.022875 0.00590625 1.97785 2.25731e+21 1.50111e-05 0.351558 0.300064 -4.11039 
0.020625 0.00609375 1.9547 2.02999e+21 1.34994e-05 -0.409075 -1.58473 -2.49618 
0.018375 0.0135938 0 0 0 0 0 0 
0.018375 0.0137813 0 0 0 0 0 0 
0.018375 0.0154687 0 0 0 0 0 0 
0.018375 0.0156563 0 0 0 0 0 0 
0.018375 0.0169687 0 0 0 0 0 0 
0.018375 0.0171562 0 0 0 0 0 0 
0.018375 0.0180937 0 0 0 0 0 0 
0.018375 0.0182812 0 0 0 0 0 0 
0.018375 0.0188437 0 0 0 0 0 0 
0.018375 0.0190312 0 0 0 0 0 0 
0.018375 0.0192187 0 0 0 0 0 0 
0.018375 0.0194062 0 0 0 0 0 0 
0.018375 0.0195938 0 0 0 0 0 0 
0.018375 0.0197812 0 0 0 0 0 0 
0.018375 0.0207187 0 0 0 0 0 0 
0.018375 0.0209062 0 0 0 0 0 0 
0.018375 0.0210937 0 0 0 0 0 0 
0.018375 0.0212812 0 0 0 0 0 0 
0.022875 0.00271875 2.13466 2.28123e+21 1.51702e-05 4.04184 0.937821 -2.59907 
0.023625 0.00271875 1.94394 2.07309e+21 1.3786e-05 1.83489 -7.436 -3.51581 
0.022875 0.00290625 1.95087 2.18468e+21 1.45281e-05 2.31364 -1.74567 -2.91764 
0.023625 0.00290625 1.97587 2.23141e+21 1.48389e-05 1.57389 1.30041 -4.11367 
0.0286875 0.0120469 2.10566 2.05556e+21 1.36695e-05 -0.475644 0.1678 -0.105519 
0.0290625 0.0120469 1.87572 2.17206e+21 1.44442e-05 -1.21956 0.98167 2.17489 
0.0286875 0.0121406 1.89858 2.07325e+21 1.37871e-05 -0.552805 1.69704 4.71777 
0.0290625 0.0121406 1.96934 2.13291e+21 1.41839e-05 -1.33934 1.72583 -1.15505 
0.0286875 0.0122344 2.04878 2.22387e+21 1.47888e-05 2.70237 -0.909414 -2.63964 
0.0290625 0.0122344 1.98576 2.14247e+21 1.42474e-05 -0.211306 3.23292 -0.819684 
0.0286875 0.0123281 1.97669 2.27306e+21 1.51159e-05 4.46062 2.56885 2.83141 
0.0290625 0.0123281 1.95262 2.15922e+21 1.43588e-05 1.20977 1.04407 1.4861 
0.0294375 0.0135469 2.03078 2.17216e+21 1.44449e-05 -0.423559 1.44764 -0.780202 
0.0298125 0.0135469 2.12164 2.21895e+21 1.4756e-05 4.1312 -2.46182 -0.923679 
0.0294375 0.0136406 2.02799 2.15723e+21 1.43456e-05 4.78742 0.243795 -1.18714 
0.0298125 0.0136406 2.03549 2.34308e+21 1.55815e-05 -1.39405 -0.00320294 -2.7508 
0.0249375 0.0152344 2.07256 2.09499e+21 1.39317e-05 0.641235 3.56113 0.567953 
0.0253125 0.0152344 2.07022 2.09202e+21 1.39119e-05 2.96944 3.13924 0.851451 
0.0249375 0.0153281 1.9395 2.20327e+21 1.46517e-05 -3.44047 -1.14879 2.37217 
0.0253125 0.0153281 1.97157 2.17373e+21 1.44553e-05 1.31733 1.41027 1.5529 
0.0264375 0.0152344 2.02557 2.13362e+21 1.41886e-05 -3.84724 -2.05546 -0.378437 
0.0268125 0.0152344 2.03004 2.10093e+21 1.39712e-05 5.08853 -0.61197 -4.99911 
0.0264375 0.0153281 2.01103 2.2269e+21 1.48089e-05 2.69728 -1.98685 2.41981 
0.0268125 0.0153281 1.95061 2.28596e+21 1.52017e-05 -0.184141 2.4373 3.26744 
0.0294375 0.0152344 1.99354 2.22871e+21 1.48209e-05 5.64273 -0.108742 0.325549 
0.0298125 0.0152344 1.92327 2.08905e+21 1.38922e-05 -0.364892 -2.16894 -0.823799 
0.0294375 0.0153281 1.96533 2.25052e+21 1.4966e-05 -2.41657 -2.95224 1.76464 
0.0298125 0.0153281 1.98063 2.18259e+21 1.45143e-05 -7.98428 4.14531 -1.36745 
0.0286875 0.0156094 2.0077 1.99536e+21 1.32691e-05 -1.43068 -1.62087 0.538705 
0.0290625 0.0156094 2.01857 2.17517e+21 1.44649e-05 0.712345 1.42274 -0.327699 
0.0286875 0.0157031 2.07124 2.10741e+21 1.40143e-05 -0.831806 -1.29399 1.77713 
0.0290625 0.0157031 2.00401 2.33516e+21 1.55288e-05 2.67182 2.15703 1.13288 
0.0241875 0.0157969 2.00747 2.34996e+21 1.56272e-05 -0.457889 5.08826 -4.3855 
0.0245625 0.0157969 1.9793 2.03472e+21 1.35309e-05 -4.863 0.504439 -4.15263 
0.0241875 0.0158906 1.9089 2.13382e+21 1.41899e-05 4.18108 -2.5773 -1.89935 
0.0245625 0.0158906 2.04021 2.17371e+21 1.44552e-05 1.54046 1.40046 2.32388 
0.0264375 0.0157969 2.00596 2.1035e+21 1.39883e-05 -1.29449 -1.69465 2.98162 
0.0268125 0.0157969 1.91932 2.18088e+21 1.45028e-05 5.48617 -0.733838 -0.580932 
0.0264375 0.0158906 2.04898 2.12813e+21 1.4152e-05 -3.27005 0.047877 -2.81559 
0.0268125 0.0158906 1.91102 2.05405e+21 1.36595e-05 -1.8218 -0.143581 2.20091 
0.0256875 0.0159844 2.05949 2.07883e+21 1.38242e-05 -3.63824 3.09841 2.18922 
0.0260625 0.0159844 1.95 2.24876e+21 1.49542e-05 4.47299 -1.68573 1.55568 
0.0256875 0.0160781 1.90894 2.16525e+21 1.43989e-05 -1.2684 3.02913 0.530258 
0.0260625 0.0160781 2.02432 2.3004e+21 1.52977e-05 -0.430772 4.02884 -3.85411 
0.0260625 0.0161719 2.1001 2.20869e+21 1.46878e-05 1.32099 -2.32119 0.199392 
0.0256875 0.0162656 2.03731 2.04566e+21 1.36037e-05 -1.28233 3.17079 -2.68347 
0.0260625 0.0162656 2.06702 2.08741e+21 1.38813e-05 -4.96188 -0.328417 4.05244 
0.0264375 0.0161719 2.05987 2.11351e+21 1.40548e-05 3.10445 -4.75633 -0.662692 
0.0268125 0.0161719 1.96912 2.1723e+21 1.44458e-05 0.976973 2.60827 2.87327 
0.0264375 0.0162656 1.97683 2.12081e+21 1.41034e-05 2.0465 3.93666 0.798653 
0.0268125 0.0162656 2.12615 2.11246e+21 1.40479e-05 -1.99492 2.60795 -1.45351 
0.0271875 0.0159844 1.88306 2.21477e+21 1.47282e-05 -1.73289 3.39428 -3.34099 
0.0275625 0.0159844 1.97637 2.20061e+21 1.46341e-05 0.974065 -2.60194 -0.964961 
0.0271875 0.0160781 1.97165 2.07515e+21 1.37998e-05 -2.86536 -0.564792 1.24294 
0.0275625 0.0160781 1.99741 2.08078e+21 1.38372e-05 -2.39714 -1.51057 -0.51383 
0.0249375 0.0165469 1.98422 2.22156e+21 1.47734e-05 -2.27001 0.444413 3.99773 
0.0253125 0.0165469 2.00275 2.1641e+21 1.43913e-05 -4.09329 3.98074 -5.07611 
0.0249375 0.0166406 1.86569 2.02677e+21 1.3478e-05 1.79994 -1.49931 0.671264 
0.0253125 0.0166406 2.06603 2.21448e+21 1.47263e-05 2.17032 -1.8847 -1.33251 
0.0249375 0.0169219 1.99526 2.09474e+21 1.393e-05 -5.33508 1.11206 1.5633 
0.0253125 0.0169219 1.95959 2.11882e+21 1.40902e-05 3.61525 -1.15542 -0.0898021 
0.0249375 0.0170156 1.99839 2.30669e+21 1.53395e-05 0.209185 0.857633 3.45419 
0.0253125 0.0170156 1.98892 2.16302e+21 1.43841e-05 -1.25794 3.5949 2.88383 
0.0256875 0.0171094 2.06667 2.21467e+21 1.47276e-05 2.59106 -1.61097 0.271085 
0.0260625 0.0171094 1.9839 2.10354e+21 1.39885e-05 2.90553 -0.486413 0.423843 
0.0260625 0.0172031 1.95559 2.05787e+21 1.36848e-05 -0.056373 -1.07383 3.32563 
0.0268125 0.0171094 1.98454 2.07708e+21 1.38126e-05 -1.91489 -0.716232 -0.871662 
0.0264375 0.0172031 1.99047 2.14471e+21 1.42623e-05 2.09091 0.405083 0.864396 
0.0268125 0.0172031 1.94886 2.27102e+21 1.51023e-05 -1.60503 1.52824 2.80891 
0.0279375 0.0167344 1.96844 2.33193e+21 1.55073e-05 -3.86919 -3.27353 2.30681 
0.0283125 0.0167344 1.94354 2.04247e+21 1.35824e-05 4.03801 1.21905 0.400332 
0.0279375 0.0168281 2.02965 2.14677e+21 1.4276e-05 0.758871 -0.431174 -3.19509 
0.0283125 0.0168281 1.97484 2.17367e+21 1.44549e-05 3.7149 -0.726478 1.63283 
0.0286875 0.0167344 1.93293 1.98025e+21 1.31686e-05 -4.57867 0.379259 1.77729 
0.0290625 0.0167344 1.91299 2.02353e+21 1.34565e-05 1.59653 0.14645 4.25914 
0.0286875 0.0168281 2.11567 2.1925e+21 1.45801e-05 -2.12479 4.58421 6.23141 
0.0290625 0.0168281 1.94501 2.08758e+21 1.38824e-05 -2.30266 1.40552 -3.98311 
0.0275625 0.0169219 1.96197 2.13755e+21 1.42147e-05 2.51209 1.01326 0.0605798 
0.0275625 0.0170156 2.09553 2.20293e+21 1.46495e-05 1.20545 -0.29791 -2.99918 
0.0294375 0.0169219 2.05216 2.08137e+21 1.38411e-05 0.1896 -2.16217 2.18519 
0.0298125 0.0169219 1.99277 2.175e+21 1.44638e-05 4.42642 0.0011541 0.325497 
0.0294375 0.0170156 2.18798 2.01935e+21 1.34287e-05 -0.708409 -3.16484 6.67494 
0.0298125 0.0170156 1.99748 2.04595e+21 1.36056e-05 -1.27525 0.482143 -0.796597 
0.0241875 0.0176719 2.05652 2.2031e+21 1.46506e-05 -1.84321 -0.908758 1.93827 
0.0245625 0.0176719 1.98499 2.2364e+21 1.48721e-05 2.5356 -0.937365 -0.243349 
0.0241875 0.0177656 1.97653 2.08699e+21 1.38785e-05 -2.27531 -5.00732 1.44231 
0.0245625 0.0177656 1.95178 2.04622e+21 1.36074e-05 -4.82287 1.68519 -3.65535 
0.0256875 0.0178594 2.07262 2.17997e+21 1.44968e-05 -0.360751 -2.87827 0.0176672 
0.0260625 0.0178594 2.08496 2.12673e+21 1.41428e-05 1.31067 1.24369 -6.55798 
0.0256875 0.0179531 1.88808 2.1005e+21 1.39683e-05 -0.739028 1.00958 2.64103 
0.0260625 0.0179531 2.06719 2.03242e+21 1.35156e-05 -1.67121 -0.993057 -1.66873 
0.0286875 0.0174844 2.05308 2.21378e+21 1.47216e-05 -4.68644 -0.881534 0.259103 
0.0290625 0.0174844 2.02834 2.21895e+21 1.4756e-05 -5.65637 2.17216 0.286833 
0.0286875 0.0175781 2.15365 2.06805e+21 1.37525e-05 -1.62257 2.50928 -2.74536 
0.0290625 0.0175781 2.01245 2.11441e+21 1.40608e-05 -4.43954 1.92431 0.228848 
0.0271875 0.0178594 1.95862 2.12166e+21 1.41091e-05 2.65969 -1.82648 -2.33068 
0.0275625 0.0178594 1.97358 2.14701e+21 1.42776e-05 1.6888 1.56504 1.60731 
0.0294375 0.0176719 1.96303 2.11087e+21 1.40373e-05 -3.91344 -1.56458 -0.834447 
0.0298125 0.0176719 1.81765 2.05452e+21 1.36625e-05 3.58431 -0.902244 2.35394 
0.0298125 0.0177656 1.91729 2.25772e+21 1.50139e-05 -1.60277 -5.00036 1.76096 
0.0294375 0.0178594 2.05532 2.14955e+21 1.42945e-05 -3.51447 -4.62917 1.05162 
0.0298125 0.0178594 1.92938 2.12673e+21 1.41428e-05 -0.152244 1.45944 -1.62718 
0.0294375 0.0179531 1.9959 2.22154e+21 1.47732e-05 2.20105 -4.0174 -1.58795 
0.0298125 0.0179531 1.9949 2.21649e+21 1.47397e-05 4.42017 -0.453282 -0.645661 
0.0245625 0.0182344 1.94871 2.29651e+21 1.52718e-05 -0.0764013 -0.971428 3.19429 
0.0241875 0.0183281 2.00525 2.06987e+21 1.37647e-05 -2.39956 -0.56293 1.28694 
0.0264375 0.0182344 1.97302 2.15003e+21 1.42977e-05 -1.83348 -1.70848 -0.559034 
0.0268125 0.0182344 2.0045 2.27665e+21 1.51397e-05 -0.750531 2.47723 -0.120774 
0.0268125 0.0183281 2.05297 2.0921e+21 1.39125e-05 -0.910056 -2.87216 -0.397809 
0.0241875 0.0186094 2.07548 2.1432e+21 1.42522e-05 0.933726 0.947641 1.15454 
0.0245625 0.0186094 2.074 2.20888e+21 1.4689e-05 2.39524 -0.503962 -0.824051 
0.0241875 0.0187031 1.90725 2.14213e+21 1.42452e-05 0.875321 -1.46764 0.197639 