ITEM: TIMESTEP
500000
ITEM: NUMBER OF CELLS
43765
ITEM: BOX BOUNDS oo ao pp
0 0.2
0 0.03
-0.1 0.1
ITEM: CELLS xc yc f_out[1] f_out[2] f_out[3] f_out[4] f_out[5] f_out[6] 
0.005 0.01575 0 0 0 0 0 0 
0.005 0.01875 0 0 0 0 0 0 
0.005 0.02175 0 0 0 0 0 0 
0.005 0.02475 0 0 0 0 0 0 
0.005 0.02775 0 0 0 0 0 0 
0.015 0.02475 0 0 0 0 0 0 
0.015 0.02775 0 0 0 0 0 0 
0.005 0.01425 0 0 0 0 0 0 
0.005 0.01725 0 0 0 0 0 0 
0.005 0.02025 0 0 0 0 0 0 
0.005 0.02325 0 0 0 0 0 0 
0.005 0.02625 0 0 0 0 0 0 
0.005 0.02925 0 0 0 0 0 0 
0.015 0.02325 0 0 0 0 0 0 
0.015 0.02625 0 0 0 0 0 0 
0.015 0.02925 0 0 0 0 0 0 
0.025 0.02325 0 0 0 0 0 0 
0.025 0.02625 0 0 0 0 0 0 
0.025 0.02925 0 0 0 0 0 0 
0.0025 0.003375 0 0 0 0 0 0 
0.0025 0.004125 0 0 0 0 0 0 
0.0025 0.006375 0 0 0 0 0 0 
0.0025 0.007125 0 0 0 0 0 0 
0.0025 0.009375 0 0 0 0 0 0 
0.0025 0.010125 0 0 0 0 0 0 
0.0025 0.012375 0 0 0 0 0 0 
0.0025 0.013125 0 0 0 0 0 0 
0.0075 0.013125 0 0 0 0 0 0 
0.0125 0.000375 1.98038 2.57108e+21 1.70977e-05 0.897262 -0.472467 0.0481884 
0.0125 0.013125 0 0 0 0 0 0 
0.0125 0.015375 0 0 0 0 0 0 
0.0125 0.016125 0 0 0 0 0 0 
0.0125 0.018375 0 0 0 0 0 0 
0.0125 0.019125 0 0 0 0 0 0 
0.0025 0.002625 0 0 0 0 0 0 
0.0025 0.004875 0 0 0 0 0 0 
0.0025 0.005625 0 0 0 0 0 0 
0.0025 0.007875 0 0 0 0 0 0 
0.0025 0.008625 0 0 0 0 0 0 
0.0025 0.010875 0 0 0 0 0 0 
0.0025 0.011625 0 0 0 0 0 0 
0.0125 0.013875 0 0 0 0 0 0 
0.0125 0.014625 0 0 0 0 0 0 
0.0125 0.016875 0 0 0 0 0 0 
0.0125 0.017625 0 0 0 0 0 0 
0.0125 0.019875 0 0 0 0 0 0 
0.0125 0.020625 0 0 0 0 0 0 
0.0125 0.021375 0 0 0 0 0 0 
0.0125 0.022125 0 0 0 0 0 0 
0.0175 0.022125 0 0 0 0 0 0 
0.00125 0.0001875 0 0 0 0 0 0 
0.00125 0.0005625 0 0 0 0 0 0 
0.00875 0.0001875 2.04635 5.1069e+21 3.39609e-05 22.547 7.34744 0.833266 
0.00125 0.0009375 0 0 0 0 0 0 
0.00125 0.0013125 0 0 0 0 0 0 
0.01125 0.0031875 0 0 0 0 0 0 
0.01125 0.0035625 0 0 0 0 0 0 
0.01125 0.0039375 0 0 0 0 0 0 
0.01125 0.0043125 0 0 0 0 0 0 
0.01125 0.0061875 0 0 0 0 0 0 
0.01125 0.0065625 0 0 0 0 0 0 
0.01125 0.0069375 0 0 0 0 0 0 
0.01125 0.0073125 0 0 0 0 0 0 
0.01125 0.0091875 0 0 0 0 0 0 
0.01625 0.0129375 0 0 0 0 0 0 
0.01625 0.0133125 0 0 0 0 0 0 
0.01625 0.0151875 0 0 0 0 0 0 
0.01625 0.0155625 0 0 0 0 0 0 
0.01625 0.0159375 0 0 0 0 0 0 
0.01625 0.0163125 0 0 0 0 0 0 
0.01625 0.0181875 0 0 0 0 0 0 
0.01625 0.0185625 0 0 0 0 0 0 
0.01625 0.0189375 0 0 0 0 0 0 
0.01625 0.0193125 0 0 0 0 0 0 
0.00125 0.0016875 0 0 0 0 0 0 
0.00125 0.0020625 0 0 0 0 0 0 
0.00375 0.0020625 0 0 0 0 0 0 
0.01125 0.0046875 0 0 0 0 0 0 
0.01125 0.0050625 0 0 0 0 0 0 
0.01125 0.0054375 0 0 0 0 0 0 
0.01125 0.0058125 0 0 0 0 0 0 
0.01125 0.0076875 0 0 0 0 0 0 
0.01125 0.0080625 0 0 0 0 0 0 
0.01125 0.0084375 0 0 0 0 0 0 
0.01125 0.0088125 0 0 0 0 0 0 
0.01625 0.0136875 0 0 0 0 0 0 
0.01625 0.0140625 0 0 0 0 0 0 
0.01625 0.0144375 0 0 0 0 0 0 
0.01625 0.0148125 0 0 0 0 0 0 
0.01625 0.0166875 0 0 0 0 0 0 
0.01625 0.0170625 0 0 0 0 0 0 
0.01625 0.0174375 0 0 0 0 0 0 
0.01625 0.0178125 0 0 0 0 0 0 
0.01625 0.0196875 0 0 0 0 0 0 
0.01625 0.0200625 0 0 0 0 0 0 
0.01625 0.0204375 0 0 0 0 0 0 
0.01625 0.0208125 0 0 0 0 0 0 
0.01125 0.0016875 0 0 0 0 0 0 
0.01125 0.0020625 0 0 0 0 0 0 
0.01125 0.0024375 0 0 0 0 0 0 
0.01125 0.0028125 0 0 0 0 0 0 
0.01625 0.0211875 0 0 0 0 0 0 
0.01625 0.0215625 0 0 0 0 0 0 
0.003125 0.00046875 2.00665 1.31523e+22 8.74631e-05 26.9644 -3.56309 -4.36843 
0.003125 0.00065625 1.98802 1.30253e+22 8.6618e-05 26.7557 -3.81773 2.45349 
0.005625 0.00046875 1.90465 9.32939e+21 6.20405e-05 44.1741 2.32779 -2.62703 
0.006875 0.00046875 1.80282 5.93952e+21 3.94978e-05 60.7511 7.61843 0.50282 
0.005625 0.00065625 1.81049 8.95067e+21 5.9522e-05 48.7382 4.21238 2.01628 
0.006875 0.00065625 1.72539 6.11543e+21 4.06676e-05 56.1615 8.35433 0.580925 
0.003125 0.00084375 1.91571 1.35724e+22 9.02564e-05 29.441 -1.18223 -1.64153 
0.003125 0.00103125 1.96639 1.38628e+22 9.21877e-05 27.5637 0.0445157 -1.72065 
0.006875 0.00084375 1.77101 5.84294e+21 3.88556e-05 51.8248 9.40763 2.3896 
0.006875 0.00103125 1.66878 5.63662e+21 3.74835e-05 53.5142 15.2721 -3.43753 
0.006875 0.00121875 1.78707 5.56064e+21 3.69783e-05 45.6666 15.1074 2.02027 
0.008125 0.00121875 1.90535 4.48529e+21 2.98271e-05 28.2065 21.4273 0.527185 
0.009375 0.00121875 1.98579 4.91103e+21 3.26583e-05 4.42275 9.76361 0.488832 
0.009375 0.00140625 2.11131 4.49612e+21 2.98992e-05 7.13273 14.0794 1.2411 
0.005625 0.00309375 0 0 0 0 0 0 
0.005625 0.00328125 0 0 0 0 0 0 
0.005625 0.00346875 0 0 0 0 0 0 
0.005625 0.00365625 0 0 0 0 0 0 
0.009375 0.00365625 1.95356 3.47344e+21 2.30983e-05 -1.17976 11.8056 -0.84148 
0.005625 0.00384375 0 0 0 0 0 0 
0.005625 0.00403125 0 0 0 0 0 0 
0.005625 0.00421875 0 0 0 0 0 0 
0.005625 0.00440625 0 0 0 0 0 0 
0.005625 0.00609375 0 0 0 0 0 0 
0.005625 0.00628125 0 0 0 0 0 0 
0.005625 0.00646875 0 0 0 0 0 0 
0.005625 0.00665625 0 0 0 0 0 0 
0.005625 0.00684375 0 0 0 0 0 0 
0.005625 0.00703125 0 0 0 0 0 0 
0.005625 0.00721875 0 0 0 0 0 0 
0.005625 0.00740625 0 0 0 0 0 0 
0.005625 0.00909375 0 0 0 0 0 0 
0.005625 0.00928125 0 0 0 0 0 0 
0.005625 0.00946875 0 0 0 0 0 0 
0.005625 0.00965625 0 0 0 0 0 0 
0.005625 0.00984375 0 0 0 0 0 0 
0.005625 0.0100312 0 0 0 0 0 0 
0.005625 0.0102187 0 0 0 0 0 0 
0.005625 0.0104062 0 0 0 0 0 0 
0.005625 0.0120938 0 0 0 0 0 0 
0.005625 0.0122813 0 0 0 0 0 0 
0.005625 0.0124688 0 0 0 0 0 0 
0.005625 0.0126563 0 0 0 0 0 0 
0.019375 0.00309375 1.95332 2.36835e+21 1.57495e-05 0.72342 -5.05955 -1.96872 
0.010625 0.00946875 1.87386 2.74549e+21 1.82575e-05 3.89903 -1.58102 -2.08124 
0.011875 0.00946875 2.02417 2.57313e+21 1.71113e-05 3.18298 -4.23681 2.84257 
0.018125 0.0128438 0 0 0 0 0 0 
0.018125 0.0130313 0 0 0 0 0 0 
0.018125 0.0132188 0 0 0 0 0 0 
0.018125 0.0134063 0 0 0 0 0 0 
0.018125 0.0150937 0 0 0 0 0 0 
0.018125 0.0152812 0 0 0 0 0 0 
0.018125 0.0154687 0 0 0 0 0 0 
0.018125 0.0156563 0 0 0 0 0 0 
0.018125 0.0158438 0 0 0 0 0 0 
0.018125 0.0160313 0 0 0 0 0 0 
0.018125 0.0162188 0 0 0 0 0 0 
0.018125 0.0164062 0 0 0 0 0 0 
0.018125 0.0180937 0 0 0 0 0 0 
0.018125 0.0182812 0 0 0 0 0 0 
0.018125 0.0184687 0 0 0 0 0 0 
0.018125 0.0186562 0 0 0 0 0 0 
0.018125 0.0188437 0 0 0 0 0 0 
0.018125 0.0190312 0 0 0 0 0 0 
0.018125 0.0192187 0 0 0 0 0 0 
0.018125 0.0194062 0 0 0 0 0 0 
0.003125 0.00159375 2.06735 1.44178e+22 9.58783e-05 15.2541 1.19038 -2.76128 
0.003125 0.00178125 0 0 0 0 0 0 
0.004375 0.00178125 0 0 0 0 0 0 
0.005625 0.00178125 0 0 0 0 0 0 
0.008125 0.00159375 1.92591 4.052e+21 2.69458e-05 19.0834 19.2825 -2.20598 
0.009375 0.00159375 2.03372 4.47928e+21 2.97872e-05 2.80703 12.565 -3.04271 
0.009375 0.00178125 2.0631 4.11163e+21 2.73424e-05 2.47674 14.9458 0.811582 
0.009375 0.00196875 2.02548 4.38336e+21 2.91493e-05 -0.757594 11.9063 1.69027 
0.009375 0.00215625 1.92844 4.04762e+21 2.69167e-05 0.212994 20.4642 1.21811 
0.009375 0.00234375 2.01093 4.20205e+21 2.79437e-05 3.19923 18.0171 0.915889 
0.009375 0.00253125 1.95325 3.91659e+21 2.60453e-05 -2.48276 16.107 0.741222 
0.005625 0.00271875 0 0 0 0 0 0 
0.005625 0.00290625 0 0 0 0 0 0 
0.009375 0.00271875 1.99753 3.81059e+21 2.53404e-05 2.65764 15.5818 0.245042 
0.005625 0.00459375 0 0 0 0 0 0 
0.005625 0.00478125 0 0 0 0 0 0 
0.005625 0.00496875 0 0 0 0 0 0 
0.005625 0.00515625 0 0 0 0 0 0 
0.005625 0.00534375 0 0 0 0 0 0 
0.005625 0.00553125 0 0 0 0 0 0 
0.005625 0.00571875 0 0 0 0 0 0 
0.005625 0.00590625 0 0 0 0 0 0 
0.005625 0.00759375 0 0 0 0 0 0 
0.005625 0.00778125 0 0 0 0 0 0 
0.005625 0.00796875 0 0 0 0 0 0 
0.005625 0.00815625 0 0 0 0 0 0 
0.005625 0.00834375 0 0 0 0 0 0 
0.005625 0.00853125 0 0 0 0 0 0 
0.005625 0.00871875 0 0 0 0 0 0 
0.005625 0.00890625 0 0 0 0 0 0 
0.005625 0.0105937 0 0 0 0 0 0 
0.005625 0.0107812 0 0 0 0 0 0 
0.005625 0.0109687 0 0 0 0 0 0 
0.005625 0.0111562 0 0 0 0 0 0 
0.005625 0.0113437 0 0 0 0 0 0 
0.005625 0.0115312 0 0 0 0 0 0 
0.005625 0.0117188 0 0 0 0 0 0 
0.005625 0.0119063 0 0 0 0 0 0 
0.019375 0.00234375 2.05441 2.56993e+21 1.709e-05 1.49818 1.82166 3.00595 
0.019375 0.00253125 1.90076 2.5137e+21 1.67161e-05 -1.19202 -2.26758 -2.61342 
0.018125 0.00271875 2.03499 2.46772e+21 1.64104e-05 -0.602413 2.10381 -0.106864 
0.019375 0.00271875 1.98771 2.52018e+21 1.67592e-05 1.60775 1.90239 -0.145488 
0.019375 0.00290625 2.03956 2.41833e+21 1.60819e-05 -1.00964 2.12237 -1.90062 
0.018125 0.0135938 0 0 0 0 0 0 
0.018125 0.0137813 0 0 0 0 0 0 
0.018125 0.0139688 0 0 0 0 0 0 
0.018125 0.0141563 0 0 0 0 0 0 
0.018125 0.0143437 0 0 0 0 0 0 
0.018125 0.0145312 0 0 0 0 0 0 
0.018125 0.0147187 0 0 0 0 0 0 
0.018125 0.0149062 0 0 0 0 0 0 
0.018125 0.0165937 0 0 0 0 0 0 
0.018125 0.0167812 0 0 0 0 0 0 
0.018125 0.0169687 0 0 0 0 0 0 
0.018125 0.0171562 0 0 0 0 0 0 
0.018125 0.0173437 0 0 0 0 0 0 
0.018125 0.0175312 0 0 0 0 0 0 
0.018125 0.0177187 0 0 0 0 0 0 
0.018125 0.0179062 0 0 0 0 0 0 
0.018125 0.0195938 0 0 0 0 0 0 
0.018125 0.0197812 0 0 0 0 0 0 
0.018125 0.0199687 0 0 0 0 0 0 
0.018125 0.0201562 0 0 0 0 0 0 
0.018125 0.0203437 0 0 0 0 0 0 
0.018125 0.0205312 0 0 0 0 0 0 
0.018125 0.0207187 0 0 0 0 0 0 
0.018125 0.0209062 0 0 0 0 0 0 
0.020625 0.00234375 2.0481 2.45983e+21 1.63579e-05 3.70374 1.65781 1.1507 
0.021875 0.00234375 2.01981 2.61918e+21 1.74176e-05 -0.15353 1.04322 -5.0656 
0.020625 0.00253125 1.99064 2.55662e+21 1.70015e-05 1.54989 -2.56674 -0.787985 
0.021875 0.00253125 2.00593 2.47346e+21 1.64485e-05 -1.05837 -1.66196 2.84946 
0.023125 0.00271875 2.01503 2.37031e+21 1.57626e-05 4.45463 1.80263 1.97071 
0.024375 0.00271875 2.05533 2.41277e+21 1.60449e-05 2.46993 3.75902 1.16606 
0.005625 0.00196875 0 0 0 0 0 0 
0.005625 0.00215625 0 0 0 0 0 0 
0.006875 0.00215625 1.99901 3.23142e+21 2.1489e-05 7.19657 9.72866 2.0834 
0.005625 0.00234375 0 0 0 0 0 0 
0.005625 0.00253125 0 0 0 0 0 0 
0.018125 0.00196875 1.94233 2.3696e+21 1.57578e-05 0.292879 -2.60084 -3.44681 
0.019375 0.00196875 2.08687 2.49722e+21 1.66065e-05 3.75714 -1.40746 -2.58081 
0.018125 0.00215625 2.04584 2.384e+21 1.58536e-05 -0.30247 0.592085 0.259098 
0.019375 0.00215625 2.04637 2.42179e+21 1.61049e-05 -1.56493 -5.2117 -0.80342 
0.015625 0.00234375 2.01445 2.43375e+21 1.61845e-05 -0.968746 2.61598 -0.104571 
0.016875 0.00234375 1.97022 2.41058e+21 1.60303e-05 3.47219 3.27146 -3.06338 
0.015625 0.00253125 1.95466 2.36347e+21 1.57171e-05 0.732818 -1.39909 -2.15678 
0.016875 0.00290625 2.00658 2.37861e+21 1.58178e-05 1.77217 -1.20854 -0.612575 
0.023125 0.00234375 1.95874 2.37291e+21 1.57799e-05 2.2865 1.5044 3.32123 
0.024375 0.00234375 2.06291 2.34973e+21 1.56257e-05 3.04484 1.21445 0.244944 
0.023125 0.00253125 1.91681 2.61028e+21 1.73583e-05 -0.091752 -2.2814 1.43662 
0.024375 0.00253125 1.93972 2.43054e+21 1.61631e-05 -1.07055 -0.729628 -0.669813 
0.025625 0.00271875 2.03974 2.46772e+21 1.64104e-05 4.16791 -0.473433 1.77576 
0.026875 0.00271875 1.98901 2.43026e+21 1.61612e-05 0.19857 3.54141 -1.3825 
0.028125 0.00271875 1.99912 2.37031e+21 1.57626e-05 2.29599 2.68394 -0.0218608 
0.029375 0.00271875 2.02851 2.4977e+21 1.66097e-05 4.91318 -0.688825 0.178097 
0.013125 0.00234375 2.12382 2.45928e+21 1.63542e-05 -0.920478 3.44862 -0.0172699 
0.014375 0.00234375 2.01898 2.48011e+21 1.64927e-05 1.07528 0.0606691 0.294829 
0.013125 0.00253125 1.95889 2.69549e+21 1.7925e-05 -0.353964 2.46502 -1.63212 
0.014375 0.00253125 1.98712 2.39298e+21 1.59133e-05 3.58231 2.16058 -2.32418 
0.018125 0.0210937 0 0 0 0 0 0 
0.018125 0.0212812 0 0 0 0 0 0 
0.018125 0.0214687 0 0 0 0 0 0 
0.018125 0.0216562 0 0 0 0 0 0 
0.0040625 0.000796875 1.83075 1.24074e+22 8.25091e-05 36.2135 -5.27687 7.88079 
0.0046875 0.000796875 1.82925 1.04645e+22 6.95887e-05 34.3242 -3.08168 3.11328 
0.0040625 0.000890625 1.91359 1.33582e+22 8.88321e-05 27.4611 -0.931405 1.56513 
0.0046875 0.000890625 2.06901 1.14063e+22 7.5852e-05 31.1948 -0.175154 3.07248 
0.0040625 0.000984375 1.91093 1.1948e+22 7.94544e-05 30.5143 -0.928919 -3.6216 
0.0046875 0.000984375 1.90503 1.09271e+22 7.2665e-05 39.0191 -2.12023 -0.174802 
0.0040625 0.00107813 1.86341 1.25719e+22 8.3603e-05 27.0653 1.60964 -0.706818 
0.0046875 0.00107813 2.00464 1.10098e+22 7.32155e-05 40.2421 -1.68466 -5.94715 
0.0040625 0.00117188 2.10879 1.24933e+22 8.30803e-05 29.0938 -3.45803 1.03391 
0.0046875 0.00117188 1.9596 1.02449e+22 6.81289e-05 28.195 -1.08881 2.2136 
0.0040625 0.00126563 1.87059 1.24263e+22 8.2635e-05 26.3823 0.415065 -2.23493 
0.0046875 0.00126563 1.87476 1.07523e+22 7.15028e-05 23.8978 -8.54294 2.7342 
0.0040625 0.00135937 1.87092 1.14295e+22 7.60059e-05 25.1661 -1.42897 0.400696 
0.0046875 0.00135937 1.895 1.03904e+22 6.90963e-05 20.5428 -1.89359 0.622241 
0.0040625 0.00145312 1.90817 1.22435e+22 8.14196e-05 13.9595 0.105241 1.25487 
0.0046875 0.00145312 1.91974 1.1122e+22 7.39613e-05 16.9892 -0.883059 0.578454 
0.0053125 0.00135937 1.81679 8.69198e+21 5.78017e-05 25.8711 1.33544 9.28537 
0.0059375 0.00135937 1.7681 8.53213e+21 5.67387e-05 28.4587 -1.85942 0.862977 
0.0053125 0.00145312 1.89795 9.02845e+21 6.00392e-05 24.3767 0.411584 1.50457 
0.0059375 0.00145312 2.13077 7.73867e+21 5.14621e-05 24.5499 1.37755 4.68433 
0.0078125 0.00417188 1.83616 3.45726e+21 2.29908e-05 -0.10051 12.8652 -0.79219 
0.0084375 0.00417188 1.98997 3.19683e+21 2.12589e-05 -1.81138 12.275 -6.5465 
0.0078125 0.00426563 1.91236 3.45769e+21 2.29936e-05 2.45709 4.07744 2.02841 
0.0084375 0.00426563 1.90553 3.34944e+21 2.22738e-05 2.09812 17.9102 -0.685476 
0.0078125 0.00435938 1.89057 3.25871e+21 2.16705e-05 -6.07069 11.2231 3.1419 
0.0084375 0.00435938 2.05227 3.28987e+21 2.18776e-05 -3.01295 15.2782 1.82022 
0.0078125 0.00445313 1.99807 3.3243e+21 2.21066e-05 -0.177022 9.87831 -0.662439 
0.0084375 0.00445313 1.89258 3.44019e+21 2.28773e-05 -1.2971 7.02767 1.97907 
0.0078125 0.00642188 1.96673 3.05383e+21 2.03079e-05 -0.465334 9.73915 0.227742 
0.0084375 0.00642188 1.98536 3.14265e+21 2.08986e-05 2.83546 8.36087 -0.988982 
0.0078125 0.00651563 1.98101 3.31421e+21 2.20395e-05 0.759229 9.99534 0.530383 
0.0084375 0.00651563 1.98224 3.00155e+21 1.99603e-05 -3.22743 4.06897 -1.38252 
0.0078125 0.00660938 1.96134 3.21377e+21 2.13716e-05 1.23978 5.6829 0.0755882 
0.0084375 0.00660938 1.87421 2.96719e+21 1.97318e-05 0.501174 10.3407 5.19978 
0.0078125 0.00670313 1.97248 2.97837e+21 1.98062e-05 -2.92633 5.86394 1.94201 
0.0084375 0.00670313 1.93235 2.9338e+21 1.95098e-05 -0.767421 3.5622 -0.859303 
0.0065625 0.00679687 2.04074 3.08763e+21 2.05327e-05 -0.89746 -1.49615 0.945452 
0.0071875 0.00679687 1.98877 3.05718e+21 2.03302e-05 2.22633 7.14165 0.802882 
0.0065625 0.00689062 2.07044 3.10193e+21 2.06279e-05 0.292595 2.92238 -0.411635 
0.0071875 0.00689062 1.95914 3.12202e+21 2.07614e-05 1.51589 5.86501 -2.80234 
0.0065625 0.00698437 2.02154 2.94918e+21 1.96121e-05 0.69172 4.82393 -0.713988 
0.0065625 0.00707812 2.08429 3.0426e+21 2.02333e-05 -0.185071 5.84418 -3.89745 
0.0071875 0.00707812 1.86988 3.0278e+21 2.01349e-05 1.05216 10.7489 2.11388 
0.0078125 0.00679687 2.07581 3.08116e+21 2.04897e-05 0.15601 4.16434 1.66445 
0.0084375 0.00679687 2.04551 3.00922e+21 2.00113e-05 -3.9671 5.02792 0.00947971 
0.0078125 0.00689062 1.92789 3.01559e+21 2.00536e-05 -1.97169 7.65305 -0.0153756 
0.0078125 0.00698437 1.95887 2.93622e+21 1.95258e-05 0.650361 6.78555 1.28805 
0.0084375 0.00698437 2.05817 2.95566e+21 1.96552e-05 3.20134 8.07284 2.33045 
0.0078125 0.00707812 1.89299 3.04315e+21 2.0237e-05 -3.12861 6.91121 0.0914781 
0.0084375 0.00707812 2.07489 2.84744e+21 1.89355e-05 -0.415744 11.7299 3.52289 
0.0065625 0.00717187 1.99184 2.84953e+21 1.89494e-05 -3.50786 4.60901 -1.46812 
0.0071875 0.00717187 1.94165 3.13593e+21 2.08539e-05 -0.820385 5.46944 -0.403129 
0.0065625 0.00726562 2.04433 2.98189e+21 1.98296e-05 -0.880446 3.93751 -0.743156 
0.0071875 0.00726562 2.09359 2.99827e+21 1.99385e-05 0.436448 7.19919 1.28386 
0.0078125 0.00717187 1.90998 3.17759e+21 2.1131e-05 3.23085 11.2536 -1.30213 
0.0084375 0.00717187 2.0425 3.03367e+21 2.01739e-05 1.45409 9.72632 1.64675 
0.0078125 0.00726562 2.12638 3.07304e+21 2.04357e-05 1.73734 8.04743 0.706977 
0.0078125 0.00735937 2.04775 3.08925e+21 2.05435e-05 -2.61672 8.55795 -4.42062 
0.0084375 0.00735937 2.10007 2.92316e+21 1.9439e-05 -0.558803 6.13464 3.02419 
0.0078125 0.00745312 2.02304 2.97022e+21 1.97519e-05 -0.821718 4.55746 -1.51681 
0.0084375 0.00745312 1.94325 3.04675e+21 2.02609e-05 -0.930131 7.30366 -0.797686 
0.0065625 0.00923437 1.96002 2.91694e+21 1.93976e-05 2.2161 -1.91941 -2.40238 
0.0071875 0.00923437 2.12708 2.89439e+21 1.92477e-05 0.812537 6.7014 1.52736 
0.0065625 0.00932812 1.85807 2.81482e+21 1.87186e-05 1.24774 3.66174 1.76348 
0.0078125 0.00923437 2.15913 2.8385e+21 1.8876e-05 0.125534 4.29521 0.463531 
0.0084375 0.00932812 1.9932 2.91189e+21 1.9364e-05 3.98042 4.83525 -0.0322873 
0.0071875 0.00942187 1.97813 2.86273e+21 1.90372e-05 -3.79127 6.31401 -2.38259 
0.0065625 0.00951562 1.98639 2.78315e+21 1.85079e-05 0.609926 2.1524 0.284865 
0.0065625 0.00970312 1.9159 2.91266e+21 1.93692e-05 -0.72958 4.66006 0.302175 
0.0096875 0.00942187 2.143 2.74342e+21 1.82437e-05 4.50754 4.8138 1.29008 
0.0096875 0.00951562 1.94097 2.55461e+21 1.69882e-05 2.9911 -2.93865 -8.70543 
0.0084375 0.00960937 2.05734 2.68815e+21 1.78762e-05 1.79671 0.426769 2.08521 
0.0065625 0.00979687 2.03714 2.89469e+21 1.92497e-05 1.2667 5.36014 -0.234956 
0.0065625 0.00989062 1.99119 2.77571e+21 1.84584e-05 0.497033 3.36582 0.660835 
0.0090625 0.00979687 1.9695 2.71711e+21 1.80688e-05 3.57571 1.13074 -2.11762 
0.0096875 0.00979687 1.9974 2.92783e+21 1.947e-05 3.9722 2.12077 -3.43801 
0.0090625 0.00989062 1.97876 2.82592e+21 1.87924e-05 3.14541 8.44606 -3.98464 
0.0096875 0.00989062 2.04459 2.65565e+21 1.76601e-05 4.68891 -1.76752 1.40455 
0.0078125 0.00998437 2.00557 2.73138e+21 1.81637e-05 2.02059 3.17163 -2.51937 
0.0084375 0.00998437 2.07106 2.78851e+21 1.85436e-05 1.44354 2.06649 -0.922656 
0.0078125 0.0100781 1.94301 2.87577e+21 1.91238e-05 5.38655 5.28298 0.757696 
0.0096875 0.0100781 2.0376 2.85959e+21 1.90163e-05 3.96131 1.48066 1.20885 
0.0065625 0.0101719 2.05842 2.89288e+21 1.92376e-05 1.02274 4.4337 1.11642 
0.0065625 0.0102656 1.98537 2.70896e+21 1.80146e-05 1.01258 1.48096 -2.43449 
0.0065625 0.0103594 2.08978 2.78745e+21 1.85366e-05 2.17641 2.85626 1.24488 
0.0071875 0.0103594 1.91614 2.82129e+21 1.87616e-05 2.13776 3.10987 -0.319243 
0.0078125 0.0101719 1.98434 2.87062e+21 1.90896e-05 3.31553 5.19368 1.13832 
0.0084375 0.0101719 1.84267 2.93204e+21 1.94981e-05 2.36777 7.59902 -2.70053 
0.0078125 0.0103594 1.91386 2.8816e+21 1.91626e-05 2.06351 7.21162 2.7704 
0.0078125 0.0104531 1.96653 2.78039e+21 1.84896e-05 2.97356 3.14815 2.05754 
0.0096875 0.0104531 1.96123 2.81677e+21 1.87315e-05 6.61519 1.77105 0.518184 
0.0065625 0.0120469 1.96785 2.7701e+21 1.84211e-05 -2.82544 -1.82111 -0.319884 
0.0065625 0.0122344 2.04396 2.93644e+21 1.95274e-05 -0.840636 -3.46965 0.636981 
0.0065625 0.0124219 1.95987 2.77758e+21 1.84709e-05 -2.71805 2.30357 -3.609 
0.0165625 0.00698437 1.95926 2.46953e+21 1.64224e-05 0.871456 0.721014 2.06565 
0.0171875 0.00698437 1.97337 2.38009e+21 1.58276e-05 9.3686 -0.856924 5.115 
0.0165625 0.00707812 1.96217 2.53276e+21 1.68429e-05 5.10079 -1.28695 0.0861946 
0.0171875 0.00707812 1.96697 2.52125e+21 1.67663e-05 2.68178 0.7036 2.30785 
0.0165625 0.00717187 2.015 2.34437e+21 1.55901e-05 4.02383 -2.83404 -0.894311 
0.0171875 0.00717187 1.99665 2.52617e+21 1.6799e-05 0.786373 -2.66891 0.237091 
0.0165625 0.00726562 1.93971 2.42254e+21 1.61099e-05 -0.847785 2.11119 1.37889 
0.0171875 0.00726562 2.09185 2.38889e+21 1.58861e-05 4.16693 0.900106 0.15237 
0.0153125 0.00735937 1.94608 2.37692e+21 1.58065e-05 -0.527291 -2.90074 1.26182 
0.0159375 0.00735937 1.92662 2.43966e+21 1.62237e-05 0.491411 -2.09276 1.1183 
0.0153125 0.00745312 2.12528 2.48186e+21 1.65044e-05 1.77043 -2.06103 -2.17434 
0.0159375 0.00745312 2.09156 2.43448e+21 1.61893e-05 6.38301 -5.93715 4.37295 
0.0128125 0.00923437 1.91192 2.55647e+21 1.70005e-05 5.94532 -1.19252 2.56815 
0.0134375 0.00923437 1.93639 2.40022e+21 1.59615e-05 4.05 -3.50186 -2.0535 
0.0128125 0.00932812 1.91758 2.55647e+21 1.70005e-05 -3.81213 -2.77936 2.05343 
0.0134375 0.00932812 1.95539 2.38192e+21 1.58398e-05 5.24188 -5.47809 -0.136364 
0.0140625 0.00923437 2.02883 2.35316e+21 1.56485e-05 0.868842 -6.56734 -4.47343 
0.0146875 0.00923437 2.06091 2.47376e+21 1.64505e-05 1.74704 -0.216702 3.01582 
0.0140625 0.00932812 2.06578 2.42269e+21 1.61109e-05 3.29576 -0.486404 0.512548 
0.0146875 0.00932812 2.02422 2.50131e+21 1.66337e-05 2.26324 -3.39163 1.65339 
0.0103125 0.00960937 1.88634 2.52986e+21 1.68236e-05 0.70985 -1.50705 2.70112 
0.0109375 0.00960937 2.12105 2.80122e+21 1.86281e-05 4.05833 1.14516 -3.17678 
0.0109375 0.00970312 1.80392 2.68738e+21 1.78711e-05 4.88699 -0.573601 -0.0727377 
0.0115625 0.00960937 1.99451 2.61749e+21 1.74063e-05 2.71264 -1.96854 2.6322 
0.0121875 0.00960937 2.03307 2.70794e+21 1.80078e-05 2.19516 0.472212 0.116962 
0.0115625 0.00970312 2.03727 2.5698e+21 1.70892e-05 1.54069 -0.705461 2.02068 
0.0121875 0.00970312 2.06029 2.5726e+21 1.71078e-05 2.20131 -3.87361 -1.82629 
0.0128125 0.00942187 1.91165 2.23426e+21 1.48578e-05 0.311139 -2.78609 3.47349 
0.0128125 0.00951562 1.99683 2.53601e+21 1.68645e-05 1.06173 -7.19917 -3.96664 
0.0134375 0.00951562 1.97197 2.47486e+21 1.64578e-05 4.15984 -5.91899 0.0943452 
0.0153125 0.00904687 1.89031 2.31486e+21 1.53938e-05 0.905534 -1.34811 4.70176 
0.0159375 0.00904687 2.00472 2.35689e+21 1.56733e-05 -0.105165 -0.444296 -1.95358 
0.0153125 0.00914062 1.93723 2.60611e+21 1.73306e-05 -3.65878 -4.06511 -1.07723 
0.0159375 0.00914062 2.03379 2.30895e+21 1.53545e-05 2.62825 -3.33515 -1.14133 
0.0153125 0.00923437 1.97887 2.46199e+21 1.63723e-05 2.94413 -3.59146 2.2313 
0.0159375 0.00923437 1.98973 2.4767e+21 1.64701e-05 1.77152 -2.35444 -0.118392 
0.0153125 0.00932812 2.0137 2.50422e+21 1.66531e-05 -1.93274 -5.40383 0.879386 
0.0159375 0.00932812 2.03082 2.60614e+21 1.73308e-05 0.812976 -3.74988 2.12511 
0.0165625 0.00923437 2.02355 2.49729e+21 1.6607e-05 1.9276 -0.190677 1.40571 
0.0171875 0.00923437 2.01398 2.38552e+21 1.58637e-05 1.16793 -4.15121 -0.87586 
0.0171875 0.00932812 2.01163 2.35572e+21 1.56655e-05 3.89261 -1.96946 -0.352071 
0.0190625 0.00923437 2.02268 2.4767e+21 1.64701e-05 3.33616 2.51544 1.20928 
0.0196875 0.00923437 2.00865 2.58848e+21 1.72134e-05 4.23147 0.578734 1.04991 
0.0190625 0.00932812 2.02191 2.37319e+21 1.57817e-05 4.70742 0.0499762 -2.05383 
0.0196875 0.00932812 2.06654 2.36445e+21 1.57236e-05 -0.147159 3.08091 0.642359 
0.0153125 0.00942187 1.92906 2.45336e+21 1.63148e-05 4.12174 -1.9968 4.29354 
0.0159375 0.00942187 2.04838 2.44759e+21 1.62765e-05 5.81597 -0.883172 0.630836 
0.0153125 0.00951562 2.01336 2.62329e+21 1.74449e-05 3.09761 2.13836 2.84182 
0.0159375 0.00951562 2.11245 2.62044e+21 1.74259e-05 0.618607 -4.96806 0.0162412 
0.0171875 0.00960937 2.01532 2.48746e+21 1.65416e-05 4.08904 -3.81407 3.09133 
0.0171875 0.00970312 2.00012 2.52221e+21 1.67727e-05 5.05837 -2.3131 -2.2928 
0.0178125 0.00960937 2.06611 2.55813e+21 1.70116e-05 3.33744 -0.601993 1.98689 
0.0184375 0.00960937 2.00745 2.50159e+21 1.66356e-05 6.65037 1.32474 -0.871979 
0.0109375 0.00989062 2.07167 2.65565e+21 1.76601e-05 -4.21315 -0.563713 -1.0631 
0.0103125 0.00998437 1.98439 2.7477e+21 1.82722e-05 2.4333 0.432234 0.315456 
0.0109375 0.00998437 1.85003 2.67697e+21 1.78018e-05 4.44016 -0.577728 0.0534903 
0.0128125 0.00989062 2.03439 2.4387e+21 1.62173e-05 8.07353 -3.8336 -1.98668 
0.0134375 0.00989062 2.02763 2.53756e+21 1.68748e-05 6.19984 -1.20477 -3.19393 
0.0140625 0.00979687 1.97732 2.33172e+21 1.5506e-05 7.39253 -6.37949 1.91834 
0.0146875 0.00979687 2.03818 2.27905e+21 1.51557e-05 6.28878 -3.73473 -0.678876 
0.0140625 0.00989062 1.99241 2.52109e+21 1.67652e-05 -1.00677 -4.99442 -0.862932 
0.0146875 0.00989062 1.93965 2.46341e+21 1.63817e-05 4.77177 0.683704 -1.18682 
0.0128125 0.00998437 2.02526 2.47021e+21 1.64269e-05 3.90884 -4.64195 -0.814194 
0.0134375 0.00998437 1.9178 2.37771e+21 1.58118e-05 4.07158 -4.05125 -2.72811 
0.0146875 0.00998437 1.94256 2.52462e+21 1.67887e-05 1.79665 -2.15603 1.8195 
0.0146875 0.0100781 2.07145 2.58199e+21 1.71702e-05 -0.00533646 -2.65823 -1.14172 
0.0109375 0.0101719 1.97335 2.72375e+21 1.8113e-05 3.6864 -5.04888 -3.72068 
0.0103125 0.0102656 1.97526 2.75445e+21 1.83171e-05 4.2134 -0.962236 -0.237108 
0.0115625 0.0102656 1.99999 2.69623e+21 1.793e-05 4.53568 1.18295 2.78328 
0.0121875 0.0103594 1.91457 2.72427e+21 1.81164e-05 7.93781 1.00384 7.64229 
0.0115625 0.0104531 2.0027 2.5985e+21 1.728e-05 3.25936 0.405405 -1.14543 
0.0128125 0.0101719 2.08294 2.62228e+21 1.74382e-05 5.7262 -0.285284 -1.26703 
0.0140625 0.0103594 2.00062 2.48043e+21 1.64948e-05 5.47183 -1.86656 2.07689 
0.0146875 0.0103594 1.97984 2.46732e+21 1.64077e-05 4.83288 1.70131 1.92087 
0.0146875 0.0104531 1.94917 2.39322e+21 1.59149e-05 4.70322 4.55726 0.856267 
0.0153125 0.00979687 2.06746 2.45649e+21 1.63357e-05 5.20581 -1.48321 5.42217 
0.0159375 0.00979687 1.98919 2.28736e+21 1.5211e-05 -1.39748 -2.84005 -1.54452 
0.0159375 0.00989062 2.02894 2.52658e+21 1.68018e-05 5.18992 -7.10313 1.63874 
0.0171875 0.00979687 1.95735 2.44817e+21 1.62803e-05 5.32608 -2.94552 0.762052 
0.0165625 0.00989062 1.96648 2.44694e+21 1.62721e-05 3.94967 -2.21022 2.39442 
0.0171875 0.00989062 2.00926 2.5101e+21 1.66922e-05 6.02773 0.0885098 -0.290534 
0.0159375 0.00998437 2.0155 2.54638e+21 1.69334e-05 4.4465 -1.28315 -2.42867 
0.0153125 0.0100781 2.0158 2.44993e+21 1.6292e-05 3.76804 0.735817 0.635107 
0.0165625 0.00998437 1.96344 2.51918e+21 1.67525e-05 4.93677 0.807242 -0.384194 
0.0171875 0.00998437 1.90908 2.66881e+21 1.77476e-05 2.5682 -1.13727 -0.715531 
0.0171875 0.0100781 2.03285 2.299e+21 1.52883e-05 7.61852 -0.187253 -0.26435 
0.0178125 0.00979687 1.95917 2.48422e+21 1.652e-05 3.6015 1.09399 -1.12618 
0.0184375 0.00979687 2.03221 2.56462e+21 1.70547e-05 6.18867 0.20652 4.10148 
0.0178125 0.00989062 2.07345 2.42497e+21 1.6126e-05 2.13321 -1.59881 -0.598517 
0.0184375 0.00989062 1.93977 2.51285e+21 1.67104e-05 4.35348 -2.81067 2.31679 
0.0190625 0.00979687 1.97322 2.56739e+21 1.70732e-05 0.37155 -1.44399 1.27321 
0.0196875 0.00979687 2.0488 2.34281e+21 1.55797e-05 2.44448 -1.37666 0.984766 
0.0190625 0.00989062 1.95931 2.41124e+21 1.60347e-05 1.21241 1.33679 -3.89159 
0.0184375 0.00998437 1.93628 2.47293e+21 1.6445e-05 2.44083 1.17575 0.929824 
0.0190625 0.00998437 2.01666 2.46477e+21 1.63907e-05 2.84117 -0.624897 2.24092 
0.0190625 0.0100781 2.00998 2.44454e+21 1.62562e-05 1.633 1.94205 -0.321993 
0.0196875 0.0100781 1.98422 2.31247e+21 1.53779e-05 5.39275 -2.11964 4.49818 
0.0165625 0.0101719 2.10759 2.37661e+21 1.58045e-05 5.08509 -0.0530423 -2.41042 
0.0171875 0.0101719 2.02392 2.54751e+21 1.6941e-05 3.70678 -0.000685855 -1.23475 
0.0165625 0.0102656 1.99597 2.51631e+21 1.67335e-05 -0.684877 -1.03749 2.14353 
0.0159375 0.0103594 1.97887 2.53025e+21 1.68261e-05 0.494536 1.617 -3.27111 
0.0153125 0.0104531 2.06935 2.54653e+21 1.69344e-05 2.8603 -3.10986 -0.113238 
0.0159375 0.0104531 2.04278 2.49456e+21 1.65888e-05 2.74191 -0.903499 -3.12775 
0.0165625 0.0103594 2.07695 2.48305e+21 1.65123e-05 5.44758 0.724639 -1.54691 
0.0171875 0.0103594 2.04392 2.37817e+21 1.58148e-05 2.27927 -1.94085 -2.35877 
0.0165625 0.0104531 1.99377 2.55173e+21 1.6969e-05 -0.33023 -0.425015 -0.0694688 
0.0171875 0.0104531 2.04647 2.46078e+21 1.63642e-05 -0.116135 -4.05423 -2.10607 
0.0196875 0.0102656 1.98305 2.3258e+21 1.54666e-05 4.64289 -3.0171 1.49306 
0.0190625 0.0103594 1.97698 2.40439e+21 1.59892e-05 4.33587 -1.20121 0.0915556 
0.0196875 0.0103594 2.05552 2.32573e+21 1.54661e-05 4.88197 -3.96242 -3.6436 
0.0196875 0.0104531 1.9488 2.47117e+21 1.64333e-05 5.38153 0.696199 -2.67708 
0.0103125 0.0121406 2.12885 2.6557e+21 1.76604e-05 2.37777 -0.32236 -0.247798 
0.0134375 0.0121406 1.94571 2.38722e+21 1.5875e-05 0.847332 -0.0675804 1.24913 
0.0146875 0.0121406 2.01368 2.5237e+21 1.67826e-05 4.26731 1.63479 1.97606 
0.0103125 0.0127031 2.11129 2.7041e+21 1.79822e-05 3.00314 -3.98499 -0.590737 
0.0109375 0.0127031 1.99189 2.59391e+21 1.72495e-05 1.44555 -1.12347 -0.368678 
0.0115625 0.0127031 1.99593 2.73623e+21 1.8196e-05 1.51713 3.12929 -0.903309 
0.0121875 0.0127031 1.94303 2.54341e+21 1.69137e-05 7.54608 -1.34295 -0.0746169 
0.0140625 0.0127031 1.93576 2.50668e+21 1.66695e-05 0.457647 -5.35034 -0.0513444 
0.0146875 0.0127031 2.07871 2.38732e+21 1.58757e-05 -1.40281 -1.976 -0.37788 
0.0165625 0.0120469 2.02643 2.5253e+21 1.67932e-05 3.56086 0.193791 0.272355 
0.0165625 0.0121406 2.04354 2.44763e+21 1.62767e-05 2.19658 -2.69925 1.53713 
0.0171875 0.0121406 1.96296 2.49014e+21 1.65594e-05 -0.155008 0.578722 1.98656 
0.0153125 0.0122344 2.0089 2.40445e+21 1.59896e-05 3.77563 -0.851419 -2.00257 
0.0184375 0.0120469 2.1466 2.50275e+21 1.66433e-05 1.98376 -0.47364 -0.44057 
0.0178125 0.0121406 2.01561 2.38946e+21 1.58899e-05 2.23109 -1.93065 0.146729 
0.0184375 0.0121406 2.14275 2.57963e+21 1.71545e-05 -2.52239 0.0253027 -0.255632 
0.0153125 0.0127031 1.96022 2.45618e+21 1.63336e-05 -3.21891 1.17501 -8.39781 
0.0159375 0.0127031 1.90588 2.43782e+21 1.62115e-05 8.24624 3.36228 -1.81727 
0.0165625 0.0127031 2.05487 2.49291e+21 1.65779e-05 -1.73777 4.8652 3.49798 
0.0171875 0.0127031 1.97521 2.36895e+21 1.57535e-05 2.66349 -0.367147 0.452196 
0.0190625 0.0127969 2.05258 2.42464e+21 1.61239e-05 -1.36718 -0.250903 3.17913 
0.0190625 0.0128906 2.00655 2.4759e+21 1.64647e-05 2.14548 -0.403793 0.977949 
0.0190625 0.0133594 1.96223 2.303e+21 1.5315e-05 -2.10359 -1.30689 -1.4638 
0.0190625 0.0134531 1.98705 2.36461e+21 1.57247e-05 -4.69876 4.0964 -1.11324 
0.0190625 0.0152344 2.01613 2.33843e+21 1.55506e-05 -0.796979 -0.410345 3.55748 
0.0190625 0.0153281 2.08505 2.47408e+21 1.64526e-05 -1.08024 -0.449249 2.9929 
0.0190625 0.0154219 1.96297 2.45226e+21 1.63075e-05 -0.00912607 2.46534 -4.15947 
0.0190625 0.0155156 1.95206 2.21188e+21 1.4709e-05 0.153343 -1.8444 2.6933 
0.0190625 0.0156094 1.95061 2.50312e+21 1.66457e-05 0.237438 -3.49708 0.954086 