ITEM: TIMESTEP
500000
ITEM: NUMBER OF CELLS
7726
ITEM: BOX BOUNDS oo ao pp
0 0.12
0 0.03
-0.1 0.1
ITEM: CELLS xc yc f_out[1] f_out[2] f_out[3] f_out[4] f_out[5] f_out[6] 
0.003 0.00675 0 0 0 0 0 0 
0.003 0.01275 0 0 0 0 0 0 
0.009 0.00675 0 0 0 0 0 0 
0.009 0.01275 0 0 0 0 0 0 
0.003 0.00825 0 0 0 0 0 0 
0.003 0.01425 0 0 0 0 0 0 
0.009 0.00825 0 0 0 0 0 0 
0.009 0.01425 0 0 0 0 0 0 
0.015 0.00825 0 0 0 0 0 0 
0.015 0.01425 0 0 0 0 0 0 
0.003 0.00375 0 0 0 0 0 0 
0.003 0.00975 0 0 0 0 0 0 
0.009 0.00375 0 0 0 0 0 0 
0.009 0.00975 0 0 0 0 0 0 
0.003 0.00525 0 0 0 0 0 0 
0.003 0.01125 0 0 0 0 0 0 
0.009 0.00525 0 0 0 0 0 0 
0.009 0.01125 0 0 0 0 0 0 
0.015 0.00525 0 0 0 0 0 0 
0.015 0.01125 0 0 0 0 0 0 
0.0015 0.000375 0 0 0 0 0 0 
0.0015 0.001125 0 0 0 0 0 0 
0.0015 0.001875 0 0 0 0 0 0 
0.0015 0.002625 0 0 0 0 0 0 
0.0045 0.002625 0 0 0 0 0 0 
0.0075 0.002625 0 0 0 0 0 0 
0.0105 0.002625 0 0 0 0 0 0 
0.0135 0.002625 0 0 0 0 0 0 
0.0165 0.002625 0 0 0 0 0 0 
0.00375 0.0001875 0 0 0 0 0 0 
0.00525 0.0001875 3.76389 6.02101e+22 0.000400397 22.4457 4.34713 -1.44715 
0.00375 0.0005625 0 0 0 0 0 0 
0.00375 0.0009375 0 0 0 0 0 0 
0.00375 0.0013125 0 0 0 0 0 0 
0.00675 0.0001875 3.86001 5.51699e+22 0.00036688 23.1937 1.05009 -1.4914 
0.00825 0.0001875 3.82161 5.59546e+22 0.000372098 23.1743 -1.36517 1.13792 
0.00975 0.0001875 4.00389 5.3178e+22 0.000353634 24.9156 -0.703113 2.91478 
0.01125 0.0001875 3.80712 4.94356e+22 0.000328747 26.1709 -2.98645 -4.56612 
0.00375 0.0016875 0 0 0 0 0 0 
0.00375 0.0020625 0 0 0 0 0 0 
0.004875 0.00046875 3.79577 5.12827e+22 0.00034103 18.6649 -9.83286 2.32959 
0.005625 0.00046875 3.96725 5.92986e+22 0.000394336 15.3064 -7.77407 -4.08461 
0.004875 0.00065625 4.11313 6.22925e+22 0.000414245 19.6344 -2.66789 6.31511 
0.004875 0.00084375 4.14827 5.93952e+22 0.000394978 14.5864 -3.61889 0.669085 
0.005625 0.00084375 3.87414 5.69271e+22 0.000378565 20.0607 -0.836821 3.32994 
0.004875 0.00103125 3.69388 5.57077e+22 0.000370456 14.0683 -5.22099 -11.6286 
0.004875 0.00121875 3.92398 6.07324e+22 0.000403871 20.4168 -0.208362 0.926779 
0.004875 0.00140625 3.85994 6.14233e+22 0.000408465 14.4997 -7.90462 3.02711 
0.006375 0.00046875 3.9466 5.40834e+22 0.000359655 18.3017 2.6616 0.23145 
0.007125 0.00046875 3.84127 5.76568e+22 0.000383418 19.9034 -0.0276339 9.4676 
0.006375 0.00065625 3.83394 6.11888e+22 0.000406905 18.9608 3.28854 0.177521 
0.007875 0.00046875 4.01053 5.67876e+22 0.000377638 22.9434 -7.72535 5.13687 
0.008625 0.00046875 3.87734 5.65945e+22 0.000376353 26.8172 0.424655 -2.69814 
0.007875 0.00065625 3.86403 5.1807e+22 0.000344516 19.7596 4.03163 -0.764244 
0.008625 0.00065625 4.03304 5.47733e+22 0.000364242 27.9608 -0.304644 -0.510394 
0.009375 0.00046875 3.86985 4.79991e+22 0.000319194 25.4258 -3.74285 -3.96194 
0.010125 0.00046875 4.01642 5.34074e+22 0.000355159 28.4856 -4.74144 -4.92439 
0.009375 0.00065625 4.08425 5.68428e+22 0.000378005 24.9319 0.437372 4.12156 
0.010125 0.00065625 4.03419 5.33936e+22 0.000355067 24.6589 -2.67869 -1.6783 
0.010875 0.00046875 3.94792 5.24416e+22 0.000348737 20.1516 -1.61274 4.61634 
0.011625 0.00046875 3.95106 4.64538e+22 0.000308918 32.3544 -9.15576 0.177307 
0.010875 0.00065625 3.74312 5.14621e+22 0.000342223 32.1471 -1.12867 4.12502 
0.011625 0.00065625 3.79104 4.82888e+22 0.00032112 25.8066 -1.19952 1.39264 
0.006375 0.00084375 3.96503 5.36006e+22 0.000356444 18.8322 -0.842214 -2.72903 
0.007875 0.00084375 3.93061 5.59077e+22 0.000371786 19.3688 -2.94366 1.32555 
0.008625 0.00084375 3.95452 5.3225e+22 0.000353946 20.9356 1.49117 0.0318212 
0.010125 0.00084375 4.03436 5.03276e+22 0.000334679 25.5443 6.73716 0.921219 
0.011625 0.00084375 4.01444 5.19909e+22 0.00034574 27.7516 1.19063 1.14689 
0.004875 0.00159375 3.94054 5.92248e+22 0.000393845 16.7923 1.3534 -3.15295 
0.004875 0.00178125 3.91745 6.09964e+22 0.000405626 11.9089 -2.23496 -1.85687 
0.004875 0.00196875 4.10288 6.26664e+22 0.000416731 12.9709 -0.360554 6.63829 
0.004875 0.00215625 0 0 0 0 0 0 
0.005625 0.00215625 0 0 0 0 0 0 
0.006375 0.00215625 0 0 0 0 0 0 
0.007125 0.00215625 0 0 0 0 0 0 
0.007875 0.00215625 0 0 0 0 0 0 
0.008625 0.00215625 0 0 0 0 0 0 
0.009375 0.00215625 0 0 0 0 0 0 
0.010125 0.00215625 0 0 0 0 0 0 
0.010875 0.00215625 0 0 0 0 0 0 
0.011625 0.00215625 0 0 0 0 0 0 
0.012375 0.00215625 0 0 0 0 0 0 
0.013125 0.00215625 0 0 0 0 0 0 
0.013875 0.00215625 0 0 0 0 0 0 
0.014625 0.00215625 0 0 0 0 0 0 
0.015375 0.00215625 0 0 0 0 0 0 
0.016125 0.00215625 0 0 0 0 0 0 
0.016875 0.00215625 0 0 0 0 0 0 
0.017625 0.00215625 0 0 0 0 0 0 
0.0054375 0.000984375 4.07751 5.62909e+22 0.000374335 18.705 0.644314 -1.73434 
0.0058125 0.000984375 4.20076 6.05219e+22 0.000402471 13.2483 -3.91483 1.74216 
0.0054375 0.00107813 3.92835 5.86184e+22 0.000389812 15.8156 -8.64532 -10.3162 
0.0058125 0.00107813 4.15064 6.21456e+22 0.000413268 17.8144 -7.2048 -1.63573 
0.0054375 0.00135937 3.96472 5.8213e+22 0.000387116 12.0826 0.446909 -2.24201 
0.0058125 0.00135937 3.9879 5.60816e+22 0.000372943 13.3478 -6.97293 -1.05666 
0.0054375 0.00145312 3.84808 5.49558e+22 0.000365456 14.8617 -3.0623 7.02139 
0.0058125 0.00145312 3.86635 5.85696e+22 0.000389488 22.2558 -0.839651 -1.91148 
0.0061875 0.00117188 4.05664 5.43925e+22 0.00036171 19.3533 3.69142 1.76947 
0.0065625 0.00117188 3.80432 5.28473e+22 0.000351434 19.7772 -6.01077 -6.00009 
0.0061875 0.00126563 3.83751 6.13804e+22 0.00040818 18.7487 6.4468 -3.73011 
0.0065625 0.00126563 4.09743 5.63727e+22 0.000374878 11.8752 -3.84098 0.733136 
0.0061875 0.00135937 3.99344 5.64812e+22 0.0003756 16.1239 -9.62094 5.28174 
0.0065625 0.00135937 4.13033 5.70141e+22 0.000379144 10.9291 -4.52543 -2.59077 
0.0061875 0.00145312 4.01519 5.80712e+22 0.000386173 14.421 2.77545 -4.87745 
0.0065625 0.00145312 4.11342 5.42081e+22 0.000360484 15.8437 -0.122954 -1.61215 
0.0084375 0.00117188 4.18421 5.40834e+22 0.000359655 19.6656 -3.10463 -8.94508 
0.0088125 0.00117188 3.58741 5.39289e+22 0.000358627 22.4975 -4.67187 5.93131 
0.0084375 0.00126563 4.50927 5.26527e+22 0.00035014 16.8471 0.455345 -0.00204066 
0.0088125 0.00126563 4.09274 4.82172e+22 0.000320645 12.6408 8.00569 4.37454 
0.0076875 0.00135937 3.7447 5.27513e+22 0.000350796 13.7926 2.11894 -4.67428 
0.0080625 0.00135937 4.02834 5.34174e+22 0.000355226 7.95216 -1.65379 0.728526 
0.0076875 0.00145312 3.95227 5.49558e+22 0.000365456 20.0621 6.30575 1.48319 
0.0080625 0.00145312 4.09542 5.24634e+22 0.000348882 12.9549 -0.144744 -1.72326 
0.0084375 0.00135937 3.85987 5.54155e+22 0.000368513 6.87555 3.23296 2.72149 
0.0088125 0.00135937 3.94045 5.26181e+22 0.000349911 17.6534 -0.163027 3.54313 
0.0084375 0.00145312 3.72551 5.04696e+22 0.000335623 14.8681 -1.08994 2.10852 
0.0088125 0.00145312 3.94684 5.32111e+22 0.000353854 19.3017 -0.378196 -0.611358 
0.0106875 0.000796875 4.25032 4.86297e+22 0.000323387 25.7178 2.61895 -1.58248 
0.0110625 0.000796875 4.28553 4.72662e+22 0.00031432 27.246 -2.29778 -3.29142 
0.0106875 0.000890625 4.48385 5.10336e+22 0.000339374 21.9519 -5.25701 -5.36342 
0.0110625 0.000890625 4.11486 5.26602e+22 0.00035019 22.1267 -12.6083 -4.06007 
0.0099375 0.00135937 4.11001 4.83554e+22 0.000321563 17.2036 -1.17203 3.21075 
0.0103125 0.00135937 3.84589 5.10196e+22 0.00033928 13.4104 8.32352 0.0693307 
0.0099375 0.00145312 4.0052 4.58588e+22 0.000304961 17.0866 6.29199 5.84707 
0.0103125 0.00145312 4.12603 5.13419e+22 0.000341424 14.3857 9.40868 -3.94754 
0.0054375 0.00173438 3.99843 5.53363e+22 0.000367987 5.99964 -5.29003 4.32039 
0.0058125 0.00173438 3.8327 6.07656e+22 0.000404091 8.28837 -3.92747 5.98236 
0.0054375 0.00182813 3.90765 5.99276e+22 0.000398519 13.5103 -1.41817 -2.48452 
0.0058125 0.00182813 3.94561 5.92342e+22 0.000393908 6.72725 -0.281978 -1.6034 
0.0061875 0.00154688 3.86211 6.16926e+22 0.000410256 9.748 -0.118664 0.262115 
0.0065625 0.00154688 4.20531 5.75954e+22 0.000383009 13.9858 -0.393972 1.71968 
0.0061875 0.00164063 3.91653 5.73947e+22 0.000381675 9.50608 -2.26064 -1.17746 
0.0065625 0.00164063 3.72249 5.78362e+22 0.000384611 17.2695 0.882449 4.18535 
0.0061875 0.00173438 3.91121 5.49187e+22 0.000365209 14.9655 -5.03348 1.90356 
0.0065625 0.00173438 3.81666 5.37702e+22 0.000357572 11.4086 4.07166 -5.99836 
0.0061875 0.00182813 3.96046 5.41825e+22 0.000360314 2.53408 0.700558 -5.24148 
0.0065625 0.00182813 3.94468 5.45787e+22 0.000362948 8.33489 -1.44882 -1.10954 
0.0069375 0.00173438 3.86359 5.88862e+22 0.000391593 6.2063 0.556207 7.42056 
0.0073125 0.00173438 4.09664 5.16821e+22 0.000343686 10.5207 -5.07935 1.24708 
0.0069375 0.00182813 3.90715 5.5074e+22 0.000366242 6.33474 1.95754 -2.10683 
0.0073125 0.00182813 4.05232 5.42816e+22 0.000360972 12.0738 -4.24832 -0.692808 
0.0076875 0.00154688 4.03926 5.1508e+22 0.000342528 10.9838 0.0925771 2.83106 
0.0080625 0.00154688 3.90884 5.59565e+22 0.00037211 13.319 -1.71709 -3.86319 
0.0076875 0.00164063 3.68862 5.61806e+22 0.000373601 15.4245 -4.21985 0.381553 
0.0080625 0.00164063 4.04054 5.38627e+22 0.000358187 5.69941 6.61171 -1.04023 
0.0084375 0.00154688 4.06267 5.1391e+22 0.00034175 14.664 -4.98518 1.57216 
0.0088125 0.00154688 4.14826 5.17422e+22 0.000344085 11.5017 -5.33556 4.44888 
0.0084375 0.00164063 4.03765 5.22071e+22 0.000347177 8.97001 1.95148 5.5372 
0.0088125 0.00164063 3.82961 5.2759e+22 0.000350847 6.93043 -3.20451 -5.88053 
0.0076875 0.00173438 3.87859 5.60672e+22 0.000372847 6.08902 4.73966 -3.06139 
0.0080625 0.00173438 3.87618 5.55452e+22 0.000369375 12.2123 -5.67566 6.08604 
0.0076875 0.00182813 3.94289 5.39844e+22 0.000358996 5.19371 0.570361 4.48437 
0.0080625 0.00182813 3.90447 5.41825e+22 0.000360314 9.652 3.5561 -3.06048 
0.0084375 0.00173438 4.02918 5.32482e+22 0.0003541 2.13229 -7.37959 -2.80591 
0.0088125 0.00173438 3.85719 5.52319e+22 0.000367292 11.2823 -2.51656 -6.74674 
0.0084375 0.00182813 3.85151 5.59655e+22 0.00037217 6.4594 5.005 1.77528 
0.0088125 0.00182813 3.83261 5.11118e+22 0.000339894 6.61601 -1.83371 3.02856 
0.0076875 0.00192187 3.85989 5.6439e+22 0.000375319 8.48879 -0.0565138 3.5949 
0.0080625 0.00192187 3.99344 5.17279e+22 0.00034399 2.62272 3.99464 -1.34534 
0.0076875 0.00201563 3.89995 5.31101e+22 0.000353182 -1.14945 6.27069 2.07433 
0.0080625 0.00201563 4.29624 5.58477e+22 0.000371387 3.57514 7.20525 -3.69719 
0.0091875 0.00154688 3.9963 5.502e+22 0.000365883 14.7792 -0.0098628 -7.94743 
0.0095625 0.00154688 3.92718 4.98691e+22 0.00033163 15.0913 -0.0294708 7.15526 
0.0091875 0.00164063 3.73595 5.15448e+22 0.000342773 17.5441 2.06524 -7.64868 
0.0095625 0.00164063 3.78203 5.23175e+22 0.000347911 19.2932 5.71497 -0.820315 
0.0099375 0.00154688 3.79899 5.04545e+22 0.000335522 15.6561 0.360579 -4.35197 
0.0103125 0.00154688 4.07463 4.9518e+22 0.000329294 19.1374 -7.45244 4.13219 
0.0099375 0.00164063 4.11103 4.60261e+22 0.000306074 11.2445 2.80228 3.91726 
0.0103125 0.00164063 4.1122 5.48561e+22 0.000364793 8.37874 -3.2056 -3.27836 
0.0091875 0.00173438 3.82343 5.19953e+22 0.000345769 10.2297 0.880751 -2.1346 
0.0095625 0.00173438 4.09877 5.49187e+22 0.000365209 2.6737 -0.0199747 0.684209 
0.0091875 0.00182813 4.32177 5.02203e+22 0.000333965 -1.80441 2.6933 5.1014 
0.0095625 0.00182813 4.03218 4.98241e+22 0.00033133 4.52859 5.12537 -1.14741 
0.0099375 0.00173438 3.83243 5.05336e+22 0.000336048 8.86846 4.22531 -0.246189 
0.0103125 0.00173438 3.9344 5.45011e+22 0.000362432 10.2137 0.610216 6.86464 
0.0099375 0.00182813 3.8201 5.16071e+22 0.000343187 5.05599 -1.84389 7.57849 
0.0103125 0.00182813 4.03654 5.03194e+22 0.000334624 12.7783 -4.09292 -6.62257 
0.0106875 0.00154688 4.28978 5.53711e+22 0.000368218 16.1475 -1.68744 3.33653 
0.0110625 0.00154688 4.19019 4.7762e+22 0.000317617 4.86166 11.2749 8.05433 
0.0106875 0.00164063 4.16476 5.12137e+22 0.000340571 13.6417 1.19136 2.61629 
0.0110625 0.00164063 4.06363 5.22071e+22 0.000347177 15.3474 0.746898 -1.2419 
0.0114375 0.00154688 3.76035 4.65914e+22 0.000309833 18.4531 6.41331 -6.18639 
0.0118125 0.00154688 3.76414 4.74108e+22 0.000315282 9.13058 3.53459 3.80466 
0.0114375 0.00164063 3.99435 5.24278e+22 0.000348645 12.5233 -1.74394 -0.963273 
0.0118125 0.00164063 4.03248 4.66884e+22 0.000310478 12.1799 2.24432 -9.50287 
0.0106875 0.00173438 4.04637 5.05336e+22 0.000336048 5.77188 3.49373 0.595894 
0.0110625 0.00173438 3.91373 4.74013e+22 0.000315219 15.9095 -9.32895 -2.6141 
0.0106875 0.00182813 4.25231 5.36872e+22 0.00035702 11.2747 -0.243323 -2.53165 
0.0110625 0.00182813 4.03202 5.13099e+22 0.000341211 8.18059 2.06229 3.70092 
0.0114375 0.00173438 3.99004 4.5522e+22 0.000302721 20.8328 8.11821 4.44992 
0.0118125 0.00173438 3.81965 4.66705e+22 0.000310359 13.5273 -10.0024 -7.68925 
0.0114375 0.00182813 3.89496 4.88336e+22 0.000324743 9.74183 1.20521 4.70908 
0.0118125 0.00182813 3.75669 4.71497e+22 0.000313545 8.27162 4.87505 -1.67386 
0.0121875 0.00154688 4.17584 4.85814e+22 0.000323067 10.1858 -0.180177 1.39272 
0.0125625 0.00154688 4.02336 4.9635e+22 0.000330073 20.6238 -3.84126 -1.45104 
0.0121875 0.00164063 3.91969 4.71299e+22 0.000313414 7.9569 2.7412 3.18347 
0.0125625 0.00164063 3.9086 4.4812e+22 0.000298 15.5728 2.25396 2.82278 
0.0129375 0.00154688 4.12955 5.17422e+22 0.000344085 16.5205 1.90105 0.289059 
0.0133125 0.00154688 4.05839 4.12064e+22 0.000274023 16.6756 1.05726 -0.138279 
0.0129375 0.00164063 3.66058 4.49224e+22 0.000298734 17.2726 -0.55524 -6.70927 
0.0133125 0.00164063 3.96229 4.77921e+22 0.000317817 15.1928 3.9478 -0.313629 
0.0129375 0.00173438 3.84486 4.54176e+22 0.000302027 13.034 -1.41645 -0.830113 
0.0133125 0.00173438 4.1063 4.38514e+22 0.000291612 6.5533 2.85851 -7.97247 
0.0129375 0.00182813 3.92136 4.69516e+22 0.000312228 8.36185 7.84595 2.76 
0.0133125 0.00182813 3.94075 4.65553e+22 0.000309593 7.49268 2.83497 -2.11774 
0.0144375 0.00154688 4.05893 4.68255e+22 0.00031139 13.4146 -3.07195 -0.284538 
0.0148125 0.00154688 3.76353 4.46013e+22 0.000296599 18.3176 9.15899 0.705569 
0.0144375 0.00164063 3.94095 4.53639e+22 0.00030167 12.5314 -5.04488 -1.96941 
0.0148125 0.00164063 3.96179 4.45912e+22 0.000296532 10.7707 -1.0535 3.74656 
0.0136875 0.00173438 3.99018 4.63572e+22 0.000308276 11.297 0.875739 -0.878579 
0.0140625 0.00173438 4.09552 4.70881e+22 0.000313136 13.8288 -0.294332 0.642941 
0.0136875 0.00182813 4.16373 4.42771e+22 0.000294443 5.29734 2.47674 2.45021 
0.0140625 0.00182813 3.93755 4.64563e+22 0.000308934 9.44607 4.87711 2.20017 
0.0136875 0.00192187 3.72566 4.32479e+22 0.000287599 2.82757 0.24002 -0.724969 
0.0140625 0.00192187 3.78479 4.40017e+22 0.000292611 6.70611 1.64082 8.28748 
0.0136875 0.00201563 4.12084 4.92774e+22 0.000327695 9.95226 5.35742 8.15446 
0.0140625 0.00201563 3.75552 4.29808e+22 0.000285822 4.25215 4.44913 3.9825 
0.0159375 0.00173438 4.04611 4.30162e+22 0.000286058 14.0549 -1.71376 3.95984 
0.0163125 0.00173438 4.063 4.23897e+22 0.000281892 10.8537 0.364452 3.07682 
0.0159375 0.00182813 4.0403 3.96216e+22 0.000263483 6.71948 -1.83753 2.86399 
0.0163125 0.00182813 3.87009 4.02159e+22 0.000267436 11.4606 0.662332 -0.0378663 
0.0166875 0.00154688 3.92389 4.49525e+22 0.000298934 17.5015 1.34775 -4.39221 
0.0170625 0.00154688 4.36014 4.12064e+22 0.000274023 17.6553 3.0179 1.25928 
0.0166875 0.00164063 4.09085 4.11696e+22 0.000273778 15.2799 7.86159 3.63148 
0.0170625 0.00164063 3.99444 3.98451e+22 0.00026497 5.09136 -5.43934 -4.29998 
0.0099375 0.000984375 3.89636 4.54375e+22 0.000302159 19.2222 1.20029 4.27738 
0.0103125 0.000984375 3.96721 4.94845e+22 0.000329072 24.446 -1.8966 -0.624321 
0.0099375 0.00107813 3.91654 5.24038e+22 0.000348485 20.027 -1.91291 3.45353 
0.0103125 0.00107813 3.64946 4.83728e+22 0.000321679 25.5072 2.84452 -5.8975 
0.0091875 0.00135937 4.17124 5.46163e+22 0.000363198 11.7662 -2.32364 0.938758 
0.0095625 0.00135937 3.79271 5.27513e+22 0.000350796 12.5669 1.93148 7.33157 
0.0091875 0.00145312 4.03339 4.90988e+22 0.000326507 13.9753 1.31789 3.20087 
0.0095625 0.00145312 3.48794 5.42081e+22 0.000360484 16.6242 7.17812 -4.38564 
0.0054375 0.00154688 3.8532 5.98196e+22 0.0003978 18.412 -10.79 4.44471 
0.0058125 0.00154688 3.99945 6.27462e+22 0.000417262 10.5319 -9.4575 2.46619 
0.0054375 0.00164063 3.7986 5.57391e+22 0.000370665 10.3927 -7.02381 -0.54395 
0.0058125 0.00164063 4.22799 5.61806e+22 0.000373601 10.6747 -5.98487 4.80664 
0.0061875 0.00192187 4.07693 5.76639e+22 0.000383465 -5.27752 3.87504 1.65463 
0.0065625 0.00192187 4.02266 5.65332e+22 0.000375946 6.78289 -2.07613 3.77284 
0.0061875 0.00201563 3.85081 5.72165e+22 0.00038049 -0.234182 -4.44636 -4.27785 
0.0065625 0.00201563 4.25563 5.36576e+22 0.000356823 -1.2981 -6.77062 -2.61337 
0.0136875 0.00154688 4.14388 4.42501e+22 0.000294263 12.5466 -7.28953 0.953969 
0.0140625 0.00154688 3.96233 4.37818e+22 0.000291149 20.0717 -3.11798 4.17889 
0.0136875 0.00164063 4.07986 4.4812e+22 0.000298 13.7467 2.39344 -0.776254 
0.0140625 0.00164063 3.81926 4.47016e+22 0.000297266 8.2292 -6.75531 -0.62915 
0.0144375 0.00173438 4.25936 4.41647e+22 0.000293695 5.40447 2.64062 -4.02275 
0.0148125 0.00173438 3.68249 4.3225e+22 0.000287446 6.91224 2.34214 12.2449 
0.0144375 0.00182813 3.74146 4.23951e+22 0.000281927 12.9636 -4.47124 -4.43721 
0.0148125 0.00182813 4.07977 4.34847e+22 0.000289173 17.2079 3.91795 1.59038 
0.0151875 0.00173438 4.02992 4.95939e+22 0.000329799 20.5537 1.31228 -0.13613 
0.0155625 0.00173438 3.92548 3.94663e+22 0.000262451 14.1033 -0.465891 -8.46124 
0.0151875 0.00182813 3.83227 4.47724e+22 0.000297736 10.053 -2.76618 -0.372802 
0.0155625 0.00182813 3.97652 4.2197e+22 0.00028061 8.77866 -0.788639 -1.00055 
0.0054375 0.00117188 3.82775 6.16551e+22 0.000410007 16.2748 -1.55253 0.742602 
0.0058125 0.00117188 3.5822 4.99113e+22 0.00033191 26.4276 -5.56213 -0.0934179 
0.0054375 0.00126563 3.9519 5.43696e+22 0.000361558 19.5232 -4.08151 0.0316688 
0.0058125 0.00126563 3.866 5.86619e+22 0.000390102 9.97734 -3.85028 2.47123 
0.0106875 0.00117188 3.57062 4.94477e+22 0.000328827 21.7508 4.69333 -6.51626 
0.0110625 0.00117188 4.1934 4.8057e+22 0.000319579 16.6469 -7.94252 -1.18332 
0.0106875 0.00126563 3.94816 5.5085e+22 0.000366315 17.5189 -2.17338 1.70494 
0.0110625 0.00126563 3.99853 4.33526e+22 0.000288295 23.5299 -0.490724 -4.9199 
0.0106875 0.00135937 4.18273 5.00871e+22 0.000333079 11.0216 -0.243181 -3.05296 
0.0110625 0.00135937 3.74669 4.94211e+22 0.00032865 12.8708 -6.58289 -0.935739 
0.0106875 0.00145312 3.92571 4.9348e+22 0.000328164 12.1101 0.281448 4.8298 
0.0110625 0.00145312 3.96289 5.10927e+22 0.000339766 15.958 -8.17242 3.98591 
0.0069375 0.00154688 3.90125 5.92342e+22 0.000393908 12.6278 -2.98642 0.561646 
0.0073125 0.00154688 3.85937 5.46688e+22 0.000363547 5.29154 2.16051 -8.81921 
0.0069375 0.00164063 3.97928 5.55183e+22 0.000369197 9.15627 -5.90792 6.86192 
0.0073125 0.00164063 3.88407 5.39731e+22 0.000358921 20.7198 -3.67386 -2.02943 
0.0069375 0.00192187 4.03483 5.75697e+22 0.000382838 -2.1438 0.697862 -4.10273 
0.0073125 0.00192187 3.88776 5.40834e+22 0.000359655 7.16452 -3.17852 -6.01195 
0.0069375 0.00201563 3.96867 5.58477e+22 0.000371387 -3.60662 6.06022 6.36451 
0.0073125 0.00201563 4.10569 5.69427e+22 0.000378669 10.3461 7.52874 8.83006 
0.0084375 0.00192187 3.88868 5.43661e+22 0.000361535 6.50698 -3.32479 2.52466 
0.0088125 0.00192187 3.97994 5.23874e+22 0.000348377 2.09631 1.26919 1.25018 
0.0084375 0.00201563 4.07066 5.69427e+22 0.000378669 9.22969 -1.37104 4.68883 
0.0088125 0.00201563 4.28198 4.46234e+22 0.000296746 -10.1811 -7.12798 -11.0254 
0.0121875 0.00192187 4.02519 4.66399e+22 0.000310155 5.06526 0.530429 -2.56534 
0.0125625 0.00192187 3.95628 4.39075e+22 0.000291985 4.15945 5.31603 -1.42506 
0.0121875 0.00201563 3.96095 5.06462e+22 0.000336797 5.12728 -8.24402 -4.30028 
0.0125625 0.00201563 4.06726 5.36576e+22 0.000356823 0.93819 -11.3778 -11.0956 
0.0151875 0.00154688 3.73109 4.54207e+22 0.000302048 15.7462 -4.17479 -9.16598 
0.0155625 0.00154688 4.15633 4.31965e+22 0.000287257 21.3047 10.8161 -3.05336 
0.0151875 0.00164063 4.06967 4.32668e+22 0.000287724 11.0011 -2.37403 -0.833678 
0.0155625 0.00164063 3.91491 4.41497e+22 0.000293596 21.9057 3.37588 -5.91315 
0.0069375 0.000984375 4.01574 5.48193e+22 0.000364548 27.9612 1.38683 -2.33631 
0.0073125 0.000984375 4.14394 4.7461e+22 0.000315616 29.827 -1.44834 -13.1376 
0.0069375 0.00107813 4.14056 5.44194e+22 0.000361889 21.4611 3.06378 8.50998 
0.0073125 0.00107813 4.0837 5.35796e+22 0.000356304 25.9922 -5.06154 -0.355546 
0.0069375 0.00117188 3.83795 6.04189e+22 0.000401786 17.6897 -4.3171 1.83033 
0.0073125 0.00117188 3.81009 5.26927e+22 0.000350407 30.7383 -2.39182 3.51525 
0.0069375 0.00126563 3.88348 5.53711e+22 0.000368218 25.6938 -0.536317 -0.352206 
0.0073125 0.00126563 3.7354 5.37973e+22 0.000357752 15.8122 10.8021 6.81737 
0.0069375 0.00135937 3.91611 5.44831e+22 0.000362312 13.8238 2.48165 -0.522294 
0.0073125 0.00135937 3.89135 5.66144e+22 0.000376486 15.9832 1.67042 -1.24957 
0.0069375 0.00145312 4.16931 5.67004e+22 0.000377058 12.3843 7.80855 -1.583 
0.0073125 0.00145312 4.1351 5.59527e+22 0.000372085 20.0319 -2.78828 0.452804 
0.0076875 0.00117188 4.03884 5.91827e+22 0.000393565 17.5862 -0.673515 -1.20294 
0.0080625 0.00117188 3.82623 6.01099e+22 0.000399731 12.5719 0.818245 4.1436 
0.0076875 0.00126563 3.67122 5.30819e+22 0.000352995 17.6111 -3.7423 5.3144 
0.0080625 0.00126563 3.7934 5.05065e+22 0.000335868 16.7334 -3.08747 -2.06484 
0.0114375 0.000984375 3.79298 4.94845e+22 0.000329072 27.324 -3.29684 2.96616 
0.0118125 0.000984375 3.96869 4.81968e+22 0.000320509 28.8568 2.63128 0.115049 
0.0114375 0.00107813 3.95467 4.83728e+22 0.000321679 21.3825 5.1436 -1.28922 
0.0118125 0.00107813 4.10912 4.97165e+22 0.000330614 12.0757 5.27961 -3.40478 
0.0099375 0.00117188 4.17005 4.88296e+22 0.000324717 20.9589 -3.09838 -1.92721 
0.0103125 0.00117188 3.90581 5.54742e+22 0.000368903 14.3333 -2.01281 0.459784 
0.0099375 0.00126563 3.83759 5.1365e+22 0.000341577 15.0719 4.69036 4.83643 
0.0103125 0.00126563 3.9093 4.72157e+22 0.000313984 20.9641 1.61852 -1.69781 
0.0054375 0.00192187 4.03182 6.02079e+22 0.000400382 7.22585 3.35084 -2.94425 
0.0058125 0.00192187 4.13803 5.45546e+22 0.000362788 1.8094 -0.622615 -2.85902 
0.0054375 0.00201563 4.10325 5.91329e+22 0.000393233 4.82336 9.08822 -5.56394 
0.0058125 0.00201563 3.74976 4.92774e+22 0.000327695 2.82983 1.96765 -5.55968 
0.0091875 0.00192187 4.0543 5.34239e+22 0.000355269 -1.71919 5.22888 -1.19465 
0.0095625 0.00192187 3.93961 5.34239e+22 0.000355269 2.72004 0.17751 4.99202 
0.0091875 0.00201563 4.12011 5.31101e+22 0.000353182 -3.54155 2.67836 -0.691211 
0.0095625 0.00201563 4.03166 5.39314e+22 0.000358643 1.15902 -9.75236 -1.7553 
0.0106875 0.00192187 4.0505 5.42719e+22 0.000360908 8.53879 3.32025 3.1492 
0.0110625 0.00192187 4.12578 5.12568e+22 0.000340858 6.16446 -6.26318 -2.5326 
0.0106875 0.00201563 3.99552 5.44789e+22 0.000362285 8.74406 -9.03184 -2.89874 
0.0110625 0.00201563 3.58096 4.84561e+22 0.000322233 2.06561 -5.79131 11.6414 
0.0121875 0.00173438 3.93501 5.33526e+22 0.000354795 5.36253 0.713371 1.58198 
0.0125625 0.00173438 3.87955 4.70881e+22 0.000313136 4.55974 -6.18832 4.5861 
0.0121875 0.00182813 4.01255 4.86355e+22 0.000323426 9.39478 -6.64899 2.1508 
0.0125625 0.00182813 3.81719 4.99232e+22 0.000331989 4.71854 2.27947 4.72758 
0.0159375 0.00154688 4.00219 4.36648e+22 0.000290371 21.8934 6.37161 -5.94752 
0.0163125 0.00154688 4.09358 4.31965e+22 0.000287257 14.4607 4.50864 1.1736 
0.0159375 0.00164063 4.1791 4.07281e+22 0.000270842 15.2701 -0.690958 -6.93164 
0.0163125 0.00164063 4.11384 4.19423e+22 0.000278916 12.7367 -1.78378 8.67806 
0.0174375 0.00154688 4.22397 3.72263e+22 0.000247555 22.8999 -1.80532 2.22489 
0.0178125 0.00154688 3.68971 4.00358e+22 0.000266238 14.923 -3.72365 -1.58366 
0.0174375 0.00164063 4.00557 4.61365e+22 0.000306808 5.6284 -5.55812 -2.48777 
0.0178125 0.00164063 3.86083 3.89622e+22 0.000259098 11.6568 -6.78598 0.167231 
0.0166875 0.00192187 4.14755 4.06097e+22 0.000270054 2.50193 -3.45722 0.730802 
0.0170625 0.00192187 3.85496 4.33421e+22 0.000288225 -3.9802 0.475761 -3.15244 
0.0166875 0.00201563 3.90714 3.83268e+22 0.000254874 14.0976 2.62589 -6.75145 
0.0170625 0.00201563 4.13696 4.10645e+22 0.000273079 5.7764 6.80385 -2.32561 
0.0091875 0.000796875 3.90997 5.29472e+22 0.000352099 16.4456 -9.93503 -3.30857 
0.0095625 0.000796875 3.76838 5.272e+22 0.000350588 31.3197 11.6543 -10.1533 
0.0091875 0.000890625 3.97609 5.16436e+22 0.00034343 18.8007 1.63006 22.169 
0.0095625 0.000890625 3.78125 4.57473e+22 0.000304219 21.3461 1.42029 -0.671434 
0.0091875 0.00117188 3.90985 5.48561e+22 0.000364793 17.4869 7.59666 -7.74977 
0.0095625 0.00117188 3.88592 4.86751e+22 0.000323689 21.2411 8.13424 0.338041 
0.0091875 0.00126563 4.13678 5.55142e+22 0.00036917 25.6336 -3.43218 -10.3458 
0.0095625 0.00126563 3.82456 5.00773e+22 0.000333014 19.2192 0.67011 -6.81497 
0.0099375 0.00192187 4.08755 4.85243e+22 0.000322687 8.80078 3.38906 4.80665 
0.0103125 0.00192187 4.04456 5.02203e+22 0.000333965 2.3764 -0.218029 3.97642 
0.0099375 0.00201563 3.93614 5.22888e+22 0.00034772 -1.16611 14.5253 -3.97953 
0.0103125 0.00201563 3.82723 4.84561e+22 0.000322233 -3.28499 0.647413 5.6931 
0.0114375 0.00192187 3.97682 4.61688e+22 0.000307022 1.23377 1.16383 -3.81041 
0.0118125 0.00192187 4.14371 4.7959e+22 0.000318927 -4.41713 5.38132 5.44487 
0.0114375 0.00201563 4.00913 4.79086e+22 0.000318592 0.590129 11.0403 -8.86976 
0.0118125 0.00201563 4.17663 4.29808e+22 0.000285822 -0.482896 5.7826 -1.98796 
0.0061875 0.000984375 3.97938 5.24278e+22 0.000348645 17.726 -2.76615 5.53672 
0.0065625 0.000984375 3.84795 5.02203e+22 0.000333965 22.2288 2.2811 -6.0423 
0.0061875 0.00107813 3.52989 6.0466e+22 0.000402099 22.434 -1.94643 7.14225 
0.0065625 0.00107813 4.12752 5.92902e+22 0.00039428 27.346 -1.84886 -3.22038 
0.0129375 0.00192187 3.82081 4.82417e+22 0.000320807 4.30411 -1.7423 6.44319 
0.0133125 0.00192187 3.77919 4.89955e+22 0.00032582 6.85968 0.310643 -0.491786 
0.0129375 0.00201563 3.90536 4.87299e+22 0.000324054 -12.0453 -1.89461 -9.84675 
0.0133125 0.00201563 3.89294 4.07907e+22 0.000271258 -2.12191 8.96592 -3.28841 
0.0114375 0.00117188 3.84353 4.97568e+22 0.000330883 19.9784 -4.41793 -6.34962 
0.0118125 0.00117188 3.94828 5.00658e+22 0.000332938 23.3206 -0.415603 0.447015 
0.0114375 0.00126563 3.83437 5.47988e+22 0.000364412 14.6297 -1.31829 -9.60132 
0.0118125 0.00126563 3.80908 5.07927e+22 0.000337771 24.9781 4.01114 -2.9351 
0.0174375 0.00173438 3.8826 4.13456e+22 0.000274949 18.1109 -0.686767 -0.722859 
0.0178125 0.00173438 4.22206 4.05104e+22 0.000269394 17.1003 5.99376 0.890912 
0.0174375 0.00182813 4.05079 3.92254e+22 0.000260849 9.08111 1.38302 0.471596 
0.0178125 0.00182813 3.78396 4.02159e+22 0.000267436 3.18643 -3.19882 2.86231 
0.0144375 0.00192187 4.14384 4.55092e+22 0.000302636 9.10369 4.89613 6.04683 
0.0148125 0.00192187 3.97693 4.60746e+22 0.000306396 4.45583 -5.47561 -9.13378 
0.0144375 0.00201563 3.98986 3.99694e+22 0.000265797 3.25304 2.13784 -1.74979 
0.0148125 0.00201563 3.92823 4.46234e+22 0.000296746 11.5655 5.67142 10.4091 
0.0166875 0.00173438 3.9986 4.38514e+22 0.000291612 16.1926 -1.06035 9.04154 
0.0170625 0.00173438 3.77548 4.17633e+22 0.000277726 20.1171 5.92974 -5.5174 
0.0166875 0.00182813 4.01903 3.98197e+22 0.000264801 7.31649 -3.73425 0.12255 
0.0170625 0.00182813 3.632 4.41781e+22 0.000293784 8.85784 6.75967 1.04991 
0.0114375 0.00135937 4.1904 5.11528e+22 0.000340166 11.2568 -0.310591 -0.88994 
0.0118125 0.00135937 3.9404 4.46255e+22 0.00029676 14.575 -0.679918 -2.51571 
0.0114375 0.00145312 3.66845 5.02203e+22 0.000333965 11.7529 5.90725 -2.50352 
0.0118125 0.00145312 3.80975 4.92234e+22 0.000327336 18.5467 3.57519 -2.32614 
0.0159375 0.00192187 4.00559 4.32479e+22 0.000287599 3.29126 -1.38283 -7.12653 
0.0163125 0.00192187 3.79088 4.26826e+22 0.000283839 6.76592 -5.10951 3.97315 
0.0159375 0.00201563 4.22004 3.96957e+22 0.000263976 -5.92644 2.65206 -4.34871 
0.0163125 0.00201563 3.78469 4.40759e+22 0.000293105 -4.56318 1.17242 -7.57931 
0.0076875 0.000984375 3.91835 5.27957e+22 0.000351092 23.0098 -6.42407 2.62846 
0.0080625 0.000984375 3.91672 5.50032e+22 0.000365771 26.3942 0.484337 -6.70027 
0.0076875 0.00107813 4.20251 5.39155e+22 0.000358538 24.2368 -9.46778 -4.02208 
0.0080625 0.00107813 4.09025 5.45873e+22 0.000363006 17.1353 -0.394013 -6.984 
0.0084375 0.000984375 4.08169 5.40834e+22 0.000359655 26.7719 7.97172 -3.85308 
0.0088125 0.000984375 3.59879 5.35316e+22 0.000355985 18.0692 -7.63269 3.44265 
0.0084375 0.00107813 3.875 5.62669e+22 0.000374175 17.943 -7.51691 -7.03713 
0.0088125 0.00107813 3.95614 5.30757e+22 0.000352953 24.7978 -1.06303 1.86649 
0.0091875 0.000984375 3.92144 5.02203e+22 0.000333965 19.0655 -6.28433 4.25106 
0.0095625 0.000984375 3.95492 4.96685e+22 0.000330295 23.6411 -2.04406 2.09153 
0.0091875 0.00107813 3.82432 4.93805e+22 0.000328381 21.3549 0.53348 2.87847 
0.0095625 0.00107813 3.94478 5.13961e+22 0.000341784 21.2295 8.08901 -5.89746 
0.0174375 0.00192187 4.00479 4.18346e+22 0.0002782 3.94683 1.25759 2.75686 
0.0178125 0.00192187 3.92865 3.46737e+22 0.00023058 13.9596 -3.73166 -2.94659 
0.0174375 0.00201563 3.75668 3.66843e+22 0.00024395 11.6367 3.65636 -10.3019 
0.0178125 0.00201563 3.86488 4.48972e+22 0.000298566 -19.1068 18.0094 9.29211 
0.0151875 0.00192187 4.13746 4.09866e+22 0.000272561 7.36661 8.3593 -2.13264 
0.0155625 0.00192187 4.19091 4.19288e+22 0.000278827 8.64425 2.65007 -2.97593 
0.0151875 0.00201563 3.88474 4.46234e+22 0.000296746 -4.18116 -0.57951 9.17471 
0.0155625 0.00201563 4.05142 4.40759e+22 0.000293105 5.43014 4.22052 -4.89586 
0.0054375 0.000609375 3.77464 5.46778e+22 0.000363607 20.8347 -17.5669 0.817081 
0.0058125 0.000609375 4.17581 6.12153e+22 0.000407082 9.64129 -13.4865 0.073072 
0.0054375 0.000703125 3.77213 5.7689e+22 0.000383632 21.8006 -2.17473 1.96838 
0.0058125 0.000703125 4.20586 5.66588e+22 0.000376781 11.3632 4.18053 13.117 
0.0069375 0.000609375 3.75518 6.12153e+22 0.000407082 22.4856 5.01825 8.12901 
0.0073125 0.000609375 4.2267 4.69516e+22 0.000312228 9.27404 -4.93376 -12.9523 