ITEM: TIMESTEP
500000
ITEM: NUMBER OF CELLS
43498
ITEM: BOX BOUNDS oo ao pp
0 0.2
0 0.03
-0.1 0.1
ITEM: CELLS xc yc f_out[1] f_out[2] f_out[3] f_out[4] f_out[5] f_out[6] 
0.005 0.01575 0 0 0 0 0 0 
0.005 0.01875 0 0 0 0 0 0 
0.005 0.02175 0 0 0 0 0 0 
0.005 0.02475 0 0 0 0 0 0 
0.005 0.02775 0 0 0 0 0 0 
0.015 0.02475 0 0 0 0 0 0 
0.015 0.02775 0 0 0 0 0 0 
0.005 0.01425 0 0 0 0 0 0 
0.005 0.01725 0 0 0 0 0 0 
0.005 0.02025 0 0 0 0 0 0 
0.005 0.02325 0 0 0 0 0 0 
0.005 0.02625 0 0 0 0 0 0 
0.005 0.02925 0 0 0 0 0 0 
0.015 0.02325 0 0 0 0 0 0 
0.015 0.02625 0 0 0 0 0 0 
0.015 0.02925 -2.83802e-16 3.62746e+15 2.41226e-11 -96.1214 16.4175 30.0981 
0.025 0.02325 0 0 0 0 0 0 
0.025 0.02625 0 0 0 0 0 0 
0.025 0.02925 0 0 0 0 0 0 
0.0025 0.003375 0 0 0 0 0 0 
0.0025 0.004125 0 0 0 0 0 0 
0.0025 0.006375 0 0 0 0 0 0 
0.0025 0.007125 0 0 0 0 0 0 
0.0025 0.009375 0 0 0 0 0 0 
0.0025 0.010125 0 0 0 0 0 0 
0.0025 0.012375 0 0 0 0 0 0 
0.0025 0.013125 0 0 0 0 0 0 
0.0075 0.013125 0 0 0 0 0 0 
0.0125 0.013125 0 0 0 0 0 0 
0.0125 0.015375 0 0 0 0 0 0 
0.0125 0.016125 0 0 0 0 0 0 
0.0125 0.018375 0 0 0 0 0 0 
0.0125 0.019125 0 0 0 0 0 0 
0.0125 0.021375 0 0 0 0 0 0 
0.0125 0.022125 0 0 0 0 0 0 
0.0175 0.022125 0 0 0 0 0 0 
0.0025 0.002625 0 0 0 0 0 0 
0.0025 0.004875 0 0 0 0 0 0 
0.0025 0.005625 0 0 0 0 0 0 
0.0025 0.007875 0 0 0 0 0 0 
0.0025 0.008625 0 0 0 0 0 0 
0.0025 0.010875 0 0 0 0 0 0 
0.0025 0.011625 0 0 0 0 0 0 
0.0125 0.013875 0 0 0 0 0 0 
0.0125 0.014625 0 0 0 0 0 0 
0.0125 0.016875 0 0 0 0 0 0 
0.0125 0.017625 0 0 0 0 0 0 
0.0125 0.019875 0 0 0 0 0 0 
0.0125 0.020625 0 0 0 0 0 0 
0.00125 0.0001875 0 0 0 0 0 0 
0.00125 0.0005625 0 0 0 0 0 0 
0.00625 0.0001875 1.76245 7.66886e+21 5.09979e-05 51.9765 1.36793 4.44181 
0.00875 0.0001875 2.01513 5.1292e+21 3.41092e-05 22.2347 -0.894806 -0.246599 
0.00125 0.0009375 0 0 0 0 0 0 
0.00125 0.0013125 0 0 0 0 0 0 
0.01125 0.0031875 0 0 0 0 0 0 
0.01125 0.0035625 0 0 0 0 0 0 
0.01125 0.0039375 0 0 0 0 0 0 
0.01125 0.0043125 0 0 0 0 0 0 
0.01125 0.0061875 0 0 0 0 0 0 
0.01125 0.0065625 0 0 0 0 0 0 
0.01125 0.0069375 0 0 0 0 0 0 
0.01125 0.0073125 0 0 0 0 0 0 
0.01125 0.0091875 0 0 0 0 0 0 
0.01625 0.0129375 0 0 0 0 0 0 
0.01625 0.0133125 0 0 0 0 0 0 
0.01625 0.0151875 0 0 0 0 0 0 
0.01625 0.0155625 0 0 0 0 0 0 
0.01625 0.0159375 0 0 0 0 0 0 
0.01625 0.0163125 0 0 0 0 0 0 
0.01625 0.0181875 0 0 0 0 0 0 
0.01625 0.0185625 0 0 0 0 0 0 
0.01625 0.0189375 0 0 0 0 0 0 
0.01625 0.0193125 0 0 0 0 0 0 
0.01625 0.0211875 0 0 0 0 0 0 
0.01625 0.0215625 0 0 0 0 0 0 
0.01125 0.0024375 0 0 0 0 0 0 
0.01125 0.0028125 0 0 0 0 0 0 
0.01125 0.0046875 0 0 0 0 0 0 
0.01125 0.0050625 0 0 0 0 0 0 
0.01125 0.0054375 0 0 0 0 0 0 
0.01125 0.0058125 0 0 0 0 0 0 
0.01125 0.0076875 0 0 0 0 0 0 
0.01125 0.0080625 0 0 0 0 0 0 
0.01125 0.0084375 0 0 0 0 0 0 
0.01125 0.0088125 0 0 0 0 0 0 
0.01625 0.0136875 0 0 0 0 0 0 
0.01625 0.0140625 0 0 0 0 0 0 
0.01625 0.0144375 0 0 0 0 0 0 
0.01625 0.0148125 0 0 0 0 0 0 
0.01625 0.0166875 0 0 0 0 0 0 
0.01625 0.0170625 0 0 0 0 0 0 
0.01625 0.0174375 0 0 0 0 0 0 
0.01625 0.0178125 0 0 0 0 0 0 
0.01625 0.0196875 0 0 0 0 0 0 
0.01625 0.0200625 0 0 0 0 0 0 
0.01625 0.0204375 0 0 0 0 0 0 
0.01625 0.0208125 0 0 0 0 0 0 
0.00125 0.0016875 0 0 0 0 0 0 
0.00125 0.0020625 0 0 0 0 0 0 
0.00375 0.0020625 0 0 0 0 0 0 
0.01125 0.0016875 0 0 0 0 0 0 
0.01125 0.0020625 0 0 0 0 0 0 
0.003125 0.00046875 1.82236 1.27711e+22 8.49279e-05 22.3378 -3.05527 7.47264 
0.003125 0.00065625 1.96277 1.39783e+22 9.29559e-05 25.3695 -2.95264 -2.6641 
0.005625 0.00046875 1.74138 9.01069e+21 5.99211e-05 49.5691 1.65449 -1.43726 
0.006875 0.00046875 1.69046 5.86709e+21 3.90161e-05 60.4446 3.02384 1.80183 
0.005625 0.00065625 1.85127 9.40597e+21 6.25497e-05 45.4646 1.56303 -0.0358082 
0.006875 0.00065625 1.66636 5.88778e+21 3.91538e-05 55.1399 8.67822 1.48262 
0.003125 0.00084375 1.87454 1.38371e+22 9.2017e-05 27.1301 -6.63118 -0.857048 
0.005625 0.00084375 1.77845 9.02196e+21 5.9996e-05 44.8946 0.802134 -0.411424 
0.006875 0.00084375 1.74097 5.75441e+21 3.82669e-05 53.1071 7.33208 0.243988 
0.006875 0.00103125 1.87079 5.36006e+21 3.56444e-05 48.9727 16.8768 0.993793 
0.006875 0.00121875 1.75152 5.34334e+21 3.55332e-05 44.0845 14.978 -1.38151 
0.008125 0.00121875 2.06244 4.15655e+21 2.76411e-05 21.6041 15.2803 2.30356 
0.009375 0.00121875 1.91607 4.94674e+21 3.28958e-05 9.13249 10.8432 0.572023 
0.008125 0.00140625 1.92676 4.27839e+21 2.84513e-05 19.7862 19.3457 -0.316898 
0.009375 0.00140625 1.96723 4.27944e+21 2.84583e-05 4.87184 14.794 0.298005 
0.005625 0.00309375 0 0 0 0 0 0 
0.005625 0.00328125 0 0 0 0 0 0 
0.005625 0.00346875 0 0 0 0 0 0 
0.005625 0.00365625 0 0 0 0 0 0 
0.005625 0.00384375 0 0 0 0 0 0 
0.005625 0.00403125 0 0 0 0 0 0 
0.005625 0.00421875 0 0 0 0 0 0 
0.005625 0.00440625 0 0 0 0 0 0 
0.005625 0.00609375 0 0 0 0 0 0 
0.005625 0.00628125 0 0 0 0 0 0 
0.005625 0.00646875 0 0 0 0 0 0 
0.005625 0.00665625 0 0 0 0 0 0 
0.005625 0.00684375 0 0 0 0 0 0 
0.005625 0.00703125 0 0 0 0 0 0 
0.005625 0.00721875 0 0 0 0 0 0 
0.005625 0.00740625 0 0 0 0 0 0 
0.005625 0.00909375 0 0 0 0 0 0 
0.005625 0.00928125 0 0 0 0 0 0 
0.005625 0.00946875 0 0 0 0 0 0 
0.005625 0.00965625 0 0 0 0 0 0 
0.005625 0.00984375 0 0 0 0 0 0 
0.005625 0.0100312 0 0 0 0 0 0 
0.005625 0.0102187 0 0 0 0 0 0 
0.005625 0.0104062 0 0 0 0 0 0 
0.005625 0.0120938 0 0 0 0 0 0 
0.005625 0.0122813 0 0 0 0 0 0 
0.005625 0.0124688 0 0 0 0 0 0 
0.005625 0.0126563 0 0 0 0 0 0 
0.013125 0.00309375 1.98651 2.6078e+21 1.73419e-05 5.03151 -0.396412 1.4003 
0.013125 0.00328125 2.06168 2.32575e+21 1.54662e-05 -0.271871 -4.17316 -0.111654 
0.013125 0.00365625 2.0518 2.53605e+21 1.68647e-05 0.143394 -2.86598 2.91667 
0.015625 0.00328125 1.94143 2.36753e+21 1.57441e-05 2.15458 1.80328 -2.46028 
0.010625 0.00946875 1.96333 2.8604e+21 1.90217e-05 3.16035 -2.2933 -0.503281 
0.011875 0.00946875 2.01285 2.70856e+21 1.80119e-05 3.61083 -4.09808 2.41788 
0.018125 0.0128438 0 0 0 0 0 0 
0.018125 0.0130313 0 0 0 0 0 0 
0.018125 0.0132188 0 0 0 0 0 0 
0.018125 0.0134063 0 0 0 0 0 0 
0.018125 0.0150937 0 0 0 0 0 0 
0.018125 0.0152812 0 0 0 0 0 0 
0.018125 0.0154687 0 0 0 0 0 0 
0.018125 0.0156563 0 0 0 0 0 0 
0.018125 0.0158438 0 0 0 0 0 0 
0.018125 0.0160313 0 0 0 0 0 0 
0.018125 0.0162188 0 0 0 0 0 0 
0.018125 0.0164062 0 0 0 0 0 0 
0.018125 0.0180937 0 0 0 0 0 0 
0.018125 0.0182812 0 0 0 0 0 0 
0.018125 0.0184687 0 0 0 0 0 0 
0.018125 0.0186562 0 0 0 0 0 0 
0.018125 0.0188437 0 0 0 0 0 0 
0.018125 0.0190312 0 0 0 0 0 0 
0.018125 0.0192187 0 0 0 0 0 0 
0.018125 0.0194062 0 0 0 0 0 0 
0.018125 0.0210937 0 0 0 0 0 0 
0.018125 0.0212812 0 0 0 0 0 0 
0.018125 0.0214687 0 0 0 0 0 0 
0.018125 0.0216562 0 0 0 0 0 0 
0.019375 0.0216562 1.99174 2.51856e+21 1.67484e-05 -3.11509 2.61516 -2.95367 
0.005625 0.00159375 1.91562 8.25019e+21 5.48638e-05 18.2809 3.32445 -0.56188 
0.005625 0.00178125 0 0 0 0 0 0 
0.006875 0.00178125 2.00739 3.72525e+21 2.47729e-05 14.8331 19.076 -1.6259 
0.008125 0.00159375 1.93506 4.22243e+21 2.80791e-05 15.2793 18.8726 0.527616 
0.009375 0.00159375 2.05812 4.41782e+21 2.93785e-05 6.34405 9.52488 1.70032 
0.008125 0.00178125 1.88989 4.08676e+21 2.71769e-05 15.8341 20.8403 1.93921 
0.009375 0.00178125 2.00055 4.25826e+21 2.83174e-05 7.32223 11.7471 1.95431 
0.005625 0.00196875 0 0 0 0 0 0 
0.005625 0.00215625 0 0 0 0 0 0 
0.006875 0.00215625 1.84565 3.21088e+21 2.13524e-05 6.18435 16.0774 1.6827 
0.009375 0.00196875 1.94666 4.17331e+21 2.77525e-05 2.53123 16.4147 -4.10379 
0.009375 0.00215625 1.9908 3.94668e+21 2.62454e-05 1.80438 12.8235 1.40432 
0.009375 0.00234375 2.05681 3.90953e+21 2.59984e-05 -1.87007 20.0715 -0.737601 
0.009375 0.00253125 2.00358 3.90799e+21 2.59881e-05 -3.3254 13.3507 0.8919 
0.009375 0.00271875 2.04989 3.71452e+21 2.47016e-05 0.889964 14.1792 2.28218 
0.005625 0.00459375 0 0 0 0 0 0 
0.005625 0.00478125 0 0 0 0 0 0 
0.005625 0.00496875 0 0 0 0 0 0 
0.005625 0.00515625 0 0 0 0 0 0 
0.005625 0.00534375 0 0 0 0 0 0 
0.005625 0.00553125 0 0 0 0 0 0 
0.005625 0.00571875 0 0 0 0 0 0 
0.005625 0.00590625 0 0 0 0 0 0 
0.005625 0.00759375 0 0 0 0 0 0 
0.005625 0.00778125 0 0 0 0 0 0 
0.005625 0.00796875 0 0 0 0 0 0 
0.005625 0.00815625 0 0 0 0 0 0 
0.005625 0.00834375 0 0 0 0 0 0 
0.005625 0.00853125 0 0 0 0 0 0 
0.005625 0.00871875 0 0 0 0 0 0 
0.005625 0.00890625 0 0 0 0 0 0 
0.005625 0.0105937 0 0 0 0 0 0 
0.005625 0.0107812 0 0 0 0 0 0 
0.005625 0.0109687 0 0 0 0 0 0 
0.005625 0.0111562 0 0 0 0 0 0 
0.005625 0.0113437 0 0 0 0 0 0 
0.005625 0.0115312 0 0 0 0 0 0 
0.005625 0.0117188 0 0 0 0 0 0 
0.005625 0.0119063 0 0 0 0 0 0 
0.018125 0.00196875 2.01947 2.42824e+21 1.61478e-05 3.31956 1.76446 -1.00516 
0.019375 0.00196875 1.90755 2.38685e+21 1.58725e-05 3.98432 4.07863 0.152908 
0.018125 0.00215625 1.92921 2.384e+21 1.58536e-05 4.59416 2.67053 2.58515 
0.019375 0.00215625 2.06213 2.5761e+21 1.71311e-05 2.42196 -1.62182 2.60322 
0.015625 0.00271875 2.04573 2.35283e+21 1.56463e-05 3.59607 -3.43956 -0.820106 
0.016875 0.00271875 2.02093 2.59511e+21 1.72575e-05 0.671538 -0.499183 1.17535 
0.015625 0.00290625 2.01507 2.47207e+21 1.64393e-05 1.18677 -2.49442 -1.02522 
0.016875 0.00290625 1.99972 2.39964e+21 1.59576e-05 0.755248 -2.50261 -3.18483 
0.019375 0.00271875 1.94755 2.50769e+21 1.66761e-05 -0.295567 -0.868587 0.27874 
0.018125 0.0135938 0 0 0 0 0 0 
0.018125 0.0137813 0 0 0 0 0 0 
0.018125 0.0139688 0 0 0 0 0 0 
0.018125 0.0141563 0 0 0 0 0 0 
0.018125 0.0143437 0 0 0 0 0 0 
0.018125 0.0145312 0 0 0 0 0 0 
0.018125 0.0147187 0 0 0 0 0 0 
0.018125 0.0149062 0 0 0 0 0 0 
0.018125 0.0165937 0 0 0 0 0 0 
0.018125 0.0167812 0 0 0 0 0 0 
0.018125 0.0169687 0 0 0 0 0 0 
0.018125 0.0171562 0 0 0 0 0 0 
0.018125 0.0173437 0 0 0 0 0 0 
0.018125 0.0175312 0 0 0 0 0 0 
0.018125 0.0177187 0 0 0 0 0 0 
0.018125 0.0179062 0 0 0 0 0 0 
0.018125 0.0195938 0 0 0 0 0 0 
0.018125 0.0197812 0 0 0 0 0 0 
0.018125 0.0199687 0 0 0 0 0 0 
0.018125 0.0201562 0 0 0 0 0 0 
0.018125 0.0203437 0 0 0 0 0 0 
0.018125 0.0205312 0 0 0 0 0 0 
0.018125 0.0207187 0 0 0 0 0 0 
0.018125 0.0209062 0 0 0 0 0 0 
0.020625 0.00271875 2.03277 2.63257e+21 1.75066e-05 2.48792 2.17346 -0.316655 
0.028125 0.00271875 1.96739 2.40029e+21 1.59619e-05 3.96285 -1.54454 -0.403507 
0.005625 0.00234375 0 0 0 0 0 0 
0.005625 0.00253125 0 0 0 0 0 0 
0.005625 0.00271875 0 0 0 0 0 0 
0.005625 0.00290625 0 0 0 0 0 0 
0.015625 0.00196875 1.99553 2.3834e+21 1.58496e-05 -5.01398 -0.530745 -0.916023 
0.016875 0.00196875 2.05458 2.3834e+21 1.58496e-05 -2.57386 0.694257 -1.32782 
0.015625 0.00215625 2.02227 2.41234e+21 1.60421e-05 0.191105 1.28305 -2.03861 
0.016875 0.00215625 2.12783 2.35565e+21 1.56651e-05 0.607313 3.23621 -2.76473 
0.013125 0.00234375 2.05036 2.39719e+21 1.59413e-05 2.00365 0.285845 1.05342 
0.014375 0.00234375 1.95336 2.46273e+21 1.63771e-05 0.194301 2.48374 -0.818744 
0.013125 0.00253125 1.97822 2.52303e+21 1.67781e-05 -0.93439 1.44638 3.51607 
0.014375 0.00253125 2.03388 2.43054e+21 1.61631e-05 -0.471651 -3.2122 -2.91768 
0.013125 0.00271875 1.98759 2.53932e+21 1.68865e-05 -3.72537 2.53812 -1.93349 
0.014375 0.00271875 2.02295 2.55015e+21 1.69585e-05 -2.68369 1.78648 1.14444 
0.013125 0.00290625 1.91105 2.5118e+21 1.67034e-05 3.03022 1.31824 0.745868 
0.015625 0.00234375 2.02889 2.45114e+21 1.63001e-05 -3.22786 0.564229 -3.64008 
0.016875 0.00234375 1.93098 2.53516e+21 1.68588e-05 4.96626 -5.91821 -2.47393 
0.015625 0.00253125 1.89955 2.30445e+21 1.53246e-05 -0.469577 4.26019 1.45084 
0.016875 0.00253125 1.997 2.49224e+21 1.65734e-05 1.89276 -4.18546 -1.32876 
0.025625 0.00159375 2.11678 2.44569e+21 1.62638e-05 2.49839 -4.38516 -2.8574 
0.026875 0.00159375 2.03089 2.47551e+21 1.64621e-05 5.06463 4.28358 3.76348 
0.025625 0.00178125 2.04721 2.39792e+21 1.59462e-05 3.85273 -0.400456 -2.01688 
0.026875 0.00178125 2.07751 2.37886e+21 1.58194e-05 4.63951 -0.00921301 -7.46828 
0.023125 0.00234375 1.91262 2.36712e+21 1.57413e-05 -2.13658 -1.37832 -1.73237 
0.024375 0.00234375 2.01273 2.52647e+21 1.6801e-05 -0.296717 -0.116738 -1.8522 
0.024375 0.00253125 2.08376 2.57004e+21 1.70907e-05 4.84947 4.055 3.64737 
0.026875 0.00271875 2.07361 2.54515e+21 1.69253e-05 4.88155 1.35103 -1.82531 
0.003125 0.00159375 2.05357 1.43174e+22 9.52106e-05 18.0057 -4.49231 -2.91894 
0.003125 0.00178125 0 0 0 0 0 0 
0.004375 0.00178125 0 0 0 0 0 0 
0.0040625 0.00117188 1.88349 1.24006e+22 8.24637e-05 29.4494 -1.36944 -4.60461 
0.0046875 0.00117188 1.82119 1.16125e+22 7.7223e-05 28.1387 -0.590663 2.7147 
0.0040625 0.00126563 1.80984 1.18468e+22 7.87815e-05 21.8576 1.2582 -2.13852 
0.0046875 0.00126563 1.91422 1.08382e+22 7.20737e-05 27.0586 1.48919 -0.926993 
0.0040625 0.00135937 1.95407 1.24885e+22 8.30484e-05 22.4274 -0.365637 0.252065 
0.0046875 0.00135937 1.91127 1.12696e+22 7.49429e-05 19.6597 -2.29428 3.50531 
0.0040625 0.00145312 1.96877 1.20753e+22 8.03008e-05 15.2404 -0.550829 -1.23532 
0.0046875 0.00145312 1.91026 1.07855e+22 7.17238e-05 17.8121 -1.28078 1.15884 
0.0053125 0.00135937 1.88787 8.55211e+21 5.68715e-05 23.2639 -4.59112 -2.9981 
0.0059375 0.00135937 1.78453 7.19336e+21 4.78359e-05 35.8437 -1.25991 2.20188 
0.0053125 0.00145312 1.98858 9.15929e+21 6.09093e-05 18.9406 -1.17373 -3.71385 
0.0059375 0.00145312 2.00406 8.03775e+21 5.3451e-05 24.8679 1.94054 -3.66055 
0.0078125 0.00379687 2.08056 3.0261e+21 2.01235e-05 -0.402724 14.8527 1.21937 
0.0084375 0.00379687 2.0541 3.51256e+21 2.33585e-05 -2.69548 10.9811 -1.32708 
0.0078125 0.00389062 1.88352 3.4e+21 2.261e-05 -11.0472 18.5226 1.244 
0.0084375 0.00389062 1.87255 3.60246e+21 2.39564e-05 -3.70252 14.1199 -0.653852 
0.0078125 0.00398438 1.88516 3.36772e+21 2.23953e-05 -2.07949 15.8541 2.46751 
0.0084375 0.00398438 1.87962 3.62677e+21 2.4118e-05 -2.65885 18.098 -0.27212 
0.0078125 0.00407813 1.84956 3.36356e+21 2.23677e-05 0.126981 2.90842 0.331946 
0.0084375 0.00407813 1.99671 3.27698e+21 2.17919e-05 0.497155 12.6328 -2.04315 
0.0065625 0.00604688 2.09227 3.0107e+21 2.00211e-05 -1.43826 3.76146 1.17717 
0.0071875 0.00604688 1.93451 3.0231e+21 2.01036e-05 -2.19019 8.84098 3.16745 
0.0065625 0.00614063 2.02498 3.21223e+21 2.13613e-05 -8.28082 3.66605 2.91062 
0.0071875 0.00614063 1.92013 3.10965e+21 2.06792e-05 -3.95387 4.02842 -1.0024 
0.0065625 0.00623438 2.00872 3.13281e+21 2.08332e-05 2.23512 7.76755 -3.39389 
0.0071875 0.00623438 1.94289 3.0411e+21 2.02233e-05 0.122674 7.10048 -2.36896 
0.0065625 0.00632813 1.97514 3.08639e+21 2.05245e-05 2.04096 4.9941 4.13776 
0.0071875 0.00632813 2.0357 3.13341e+21 2.08371e-05 1.92986 8.61687 -2.92194 
0.0078125 0.00604688 1.94205 3.16235e+21 2.10297e-05 3.7469 9.04842 -2.66565 
0.0078125 0.00614063 1.95709 3.14946e+21 2.09439e-05 -1.92566 4.58393 -0.867864 
0.0084375 0.00614063 1.99035 3.10523e+21 2.06498e-05 -2.39042 4.09256 5.25565 
0.0078125 0.00623438 1.87781 3.19795e+21 2.12664e-05 -1.42904 7.26372 0.836374 
0.0084375 0.00623438 1.90281 3.2938e+21 2.19038e-05 2.77786 8.38888 -3.0257 
0.0078125 0.00632813 2.06929 3.27505e+21 2.17791e-05 -4.61413 4.05175 1.71471 
0.0084375 0.00632813 2.01536 3.14628e+21 2.09228e-05 3.40628 7.54086 -1.00954 
0.0078125 0.00642188 1.9705 3.26531e+21 2.17143e-05 -1.01307 5.54591 -5.38517 
0.0084375 0.00642188 1.94006 3.15957e+21 2.10111e-05 -1.94195 3.77689 -1.01434 
0.0078125 0.00651563 1.9663 2.88065e+21 1.91563e-05 1.20605 11.6848 -2.09697 
0.0084375 0.00651563 1.98852 2.93902e+21 1.95445e-05 0.606085 6.85756 1.55064 
0.0065625 0.00679687 2.00362 3.25414e+21 2.164e-05 3.76856 5.76059 -4.34504 
0.0071875 0.00679687 2.07679 3.12512e+21 2.0782e-05 1.88601 5.73853 3.50174 
0.0065625 0.00689062 1.91758 3.07378e+21 2.04406e-05 2.23583 0.682997 0.391182 
0.0071875 0.00689062 1.94204 3.07471e+21 2.04469e-05 -0.206659 6.22413 6.06761 
0.0065625 0.00698437 2.01088 3.19919e+21 2.12746e-05 -1.3279 6.94053 0.180651 
0.0071875 0.00698437 2.04191 2.91288e+21 1.93707e-05 0.795289 5.31024 -3.42014 
0.0065625 0.00707812 2.12037 2.7685e+21 1.84105e-05 -1.29448 3.36801 0.501191 
0.0071875 0.00707812 2.11063 2.94338e+21 1.95735e-05 -3.89264 5.25093 5.63185 
0.0078125 0.00679687 1.96059 3.00523e+21 1.99848e-05 5.0608 7.09723 0.84456 
0.0084375 0.00679687 2.01743 3.09714e+21 2.0596e-05 0.518057 6.65666 1.01023 
0.0078125 0.00689062 1.95119 3.04318e+21 2.02371e-05 0.274001 5.71792 2.27778 
0.0084375 0.00689062 1.97694 3.14961e+21 2.09449e-05 -0.620324 7.27466 1.06098 
0.0065625 0.00717187 2.11778 2.99381e+21 1.99089e-05 -0.0900746 1.63569 -3.4343 
0.0071875 0.00717187 1.97494 3.20789e+21 2.13325e-05 0.660121 8.87486 1.42 
0.0065625 0.00726562 1.89548 3.00859e+21 2.00071e-05 -1.23246 7.06519 0.555497 
0.0065625 0.00735937 1.99604 3.21193e+21 2.13593e-05 -0.167658 0.596429 -0.131665 
0.0071875 0.00735937 2.01347 3.10402e+21 2.06417e-05 -3.26538 7.9855 2.15327 
0.0065625 0.00745312 2.05217 3.07174e+21 2.04271e-05 -1.62498 5.72681 0.964385 
0.0078125 0.00717187 2.03319 3.16623e+21 2.10554e-05 -0.318522 8.26929 -5.2909 
0.0084375 0.00717187 1.98373 3.28742e+21 2.18614e-05 0.457188 5.00831 -2.87804 
0.0078125 0.00726562 1.99881 2.9235e+21 1.94413e-05 -0.372184 7.96775 4.84942 
0.0084375 0.00726562 1.92827 3.27118e+21 2.17533e-05 -0.10099 4.68771 4.44699 
0.0078125 0.00735937 1.94844 3.152e+21 2.09608e-05 -3.83162 7.25061 1.55734 
0.0084375 0.00735937 2.00791 3.08556e+21 2.0519e-05 -0.921277 5.85275 4.80596 
0.0078125 0.00745312 1.92967 2.98844e+21 1.98731e-05 -2.93062 8.85602 2.58876 
0.0084375 0.00745312 2.0818 3.08684e+21 2.05275e-05 -0.219811 6.90391 -0.607972 
0.0065625 0.00923437 1.99985 3.08502e+21 2.05154e-05 0.396264 4.93785 0.148071 
0.0071875 0.00923437 1.9935 2.80908e+21 1.86804e-05 0.970673 3.22569 -2.69759 
0.0065625 0.00932812 1.98832 2.89802e+21 1.92718e-05 -1.23733 -0.962613 -0.529552 
0.0078125 0.00904687 2.01656 3.01742e+21 2.00659e-05 5.01663 3.15544 -0.343269 
0.0084375 0.00914062 1.92616 2.80521e+21 1.86546e-05 4.2159 5.4992 -4.4079 
0.0078125 0.00923437 2.00488 2.89144e+21 1.92281e-05 -0.780135 7.66575 3.55411 
0.0078125 0.00932812 1.98591 2.97012e+21 1.97513e-05 2.26907 4.87499 -4.89765 
0.0084375 0.00932812 1.94051 2.88859e+21 1.92091e-05 1.19993 3.02871 0.370089 
0.0065625 0.00942187 1.96252 2.75936e+21 1.83497e-05 0.693877 3.06364 3.52852 
0.0071875 0.00942187 2.02771 2.84832e+21 1.89413e-05 -2.20524 8.85062 -3.16889 
0.0065625 0.00951562 1.92317 2.91228e+21 1.93667e-05 1.68424 4.539 -2.0988 
0.0065625 0.00960937 2.04074 2.92088e+21 1.94239e-05 -0.570392 0.321601 -1.51914 
0.0065625 0.00970312 1.98284 2.77269e+21 1.84384e-05 -8.09138 -0.720608 -3.13775 
0.0078125 0.00951562 2.06516 2.88591e+21 1.91913e-05 -0.399351 6.77609 2.06007 
0.0084375 0.00951562 1.96505 2.99153e+21 1.98936e-05 3.14919 7.36919 -0.921188 
0.0078125 0.00970312 2.02678 2.78255e+21 1.8504e-05 4.76335 5.76941 -0.300928 
0.0096875 0.00960937 1.98632 2.75599e+21 1.83274e-05 5.4325 -1.32366 0.751546 
0.0096875 0.00970312 2.05672 2.73217e+21 1.81689e-05 3.27918 3.49479 2.40486 
0.0065625 0.00989062 2.00466 2.89667e+21 1.92629e-05 -0.0624607 3.21254 -4.16696 
0.0065625 0.00998437 1.85879 2.89538e+21 1.92543e-05 -1.28344 1.53263 -0.672644 
0.0084375 0.00979687 1.95201 2.93892e+21 1.95438e-05 4.11412 7.88182 -1.40066 
0.0084375 0.00989062 2.00435 2.83416e+21 1.88472e-05 1.17864 7.15314 -1.36108 
0.0090625 0.00979687 2.01367 2.83633e+21 1.88616e-05 4.04597 1.29217 2.49586 
0.0096875 0.00979687 2.04394 2.80583e+21 1.86588e-05 6.37749 2.23709 0.611871 
0.0090625 0.00989062 2.12632 2.79846e+21 1.86098e-05 -0.148242 3.33644 -0.785049 
0.0096875 0.00989062 2.04771 2.64467e+21 1.75871e-05 -0.26025 -0.644192 -1.72363 
0.0078125 0.0100781 2.0029 2.90272e+21 1.93031e-05 2.61869 1.14342 0.581365 
0.0090625 0.0100781 1.9911 2.70327e+21 1.79768e-05 2.16871 0.232428 3.2842 
0.0096875 0.0100781 1.93699 2.76796e+21 1.84069e-05 7.51154 0.482852 -3.93372 
0.0065625 0.0101719 2.03521 2.92149e+21 1.94279e-05 0.459428 3.74858 -1.94042 
0.0065625 0.0102656 1.95032 2.87591e+21 1.91248e-05 -1.07319 1.72671 5.4263 
0.0065625 0.0103594 2.01228 2.98722e+21 1.9865e-05 -0.69126 2.91913 -1.57105 
0.0065625 0.0104531 2.00077 2.92331e+21 1.944e-05 -0.645518 2.70054 1.16223 
0.0071875 0.0104531 1.93609 2.73622e+21 1.81959e-05 0.588522 3.20471 0.37292 
0.0084375 0.0101719 2.0334 2.93204e+21 1.94981e-05 4.28596 3.95019 -2.37591 
0.0090625 0.0102656 1.97102 2.89468e+21 1.92496e-05 4.63743 6.40285 -0.695602 
0.0096875 0.0103594 1.97881 2.85275e+21 1.89708e-05 4.98611 1.32542 -0.745525 
0.0096875 0.0104531 1.99017 2.70244e+21 1.79712e-05 4.0773 4.11123 4.86808 
0.0065625 0.0122344 2.03449 2.7805e+21 1.84904e-05 -1.9549 2.51835 -2.22532 
0.0065625 0.0125156 2.03064 2.70769e+21 1.80061e-05 -0.406568 -0.768009 -2.84114 
0.0065625 0.0127031 2.07807 2.83111e+21 1.88269e-05 -0.396906 3.43756 -1.12275 
0.0071875 0.0127031 1.99811 2.96578e+21 1.97225e-05 -4.46552 0.223119 -2.05342 
0.0078125 0.0127031 1.96244 2.72246e+21 1.81044e-05 -0.513058 0.242214 -3.05119 
0.0084375 0.0127031 2.00384 2.75001e+21 1.82875e-05 -4.62537 0.82202 3.70802 
0.0090625 0.0127031 1.96877 2.71328e+21 1.80433e-05 0.958799 0.528225 -2.68073 
0.0096875 0.0127031 2.03993 2.83724e+21 1.88676e-05 0.458264 0.944701 0.589598 
0.0140625 0.00679687 1.9874 2.32985e+21 1.54935e-05 3.25156 -2.0601 0.175965 
0.0146875 0.00679687 2.06539 2.54166e+21 1.6902e-05 1.898 -1.7447 -2.84778 
0.0140625 0.00689062 1.99259 2.51102e+21 1.66983e-05 0.742653 -1.58081 0.448786 
0.0146875 0.00689062 2.02001 2.54255e+21 1.6908e-05 0.553435 -3.34912 4.78099 
0.0190625 0.00679687 2.02695 2.4937e+21 1.65831e-05 0.951483 -0.295833 1.9075 
0.0196875 0.00679687 1.85008 2.46173e+21 1.63705e-05 1.09059 -1.58399 -0.551869 
0.0190625 0.00689062 1.88285 2.35728e+21 1.56759e-05 1.9117 -3.07169 -0.848726 
0.0196875 0.00689062 1.98514 2.60957e+21 1.73536e-05 0.975644 -1.21105 -1.05009 
0.0103125 0.00960937 2.04196 2.58922e+21 1.72183e-05 -0.175064 -0.907912 -1.04798 
0.0103125 0.00970312 1.90542 2.595e+21 1.72567e-05 0.70037 0.539183 -3.72691 
0.0109375 0.00970312 2.03809 2.80775e+21 1.86715e-05 3.30892 -0.650113 -0.251382 
0.0115625 0.00960937 1.98918 2.54965e+21 1.69552e-05 3.02715 0.476388 0.147446 
0.0121875 0.00960937 1.99815 2.67402e+21 1.77822e-05 5.0002 0.221138 -0.223196 
0.0121875 0.00970312 2.00018 2.63979e+21 1.75546e-05 5.40756 -2.74533 2.30698 
0.0140625 0.00942187 2.01158 2.5139e+21 1.67174e-05 2.8156 -4.3266 -0.828305 
0.0146875 0.00942187 2.00656 2.52831e+21 1.68133e-05 9.93976 -5.05376 2.69233 
0.0146875 0.00951562 1.91386 2.44061e+21 1.623e-05 1.38646 -0.574077 1.06673 
0.0146875 0.00960937 1.98613 2.58074e+21 1.71619e-05 2.86177 -3.51218 1.65916 
0.0140625 0.00970312 1.97377 2.48582e+21 1.65307e-05 1.92348 -3.51519 -0.180752 
0.0146875 0.00970312 1.92868 2.24788e+21 1.49484e-05 3.10566 -1.05122 -2.28569 
0.0165625 0.00923437 1.92929 2.52965e+21 1.68221e-05 4.35645 2.44836 3.9058 
0.0171875 0.00923437 1.97734 2.5973e+21 1.7272e-05 1.96869 -2.11178 1.76119 
0.0165625 0.00932812 2.00911 2.61779e+21 1.74083e-05 1.45408 -3.62283 -2.43229 
0.0171875 0.00932812 1.95238 2.33242e+21 1.55106e-05 2.21477 -0.814324 2.33884 
0.0178125 0.00904687 2.01206 2.38391e+21 1.5853e-05 -2.59622 -1.93101 2.38207 
0.0184375 0.00904687 1.92389 2.53404e+21 1.68513e-05 -0.726526 -5.29255 1.8858 
0.0178125 0.00914062 2.05699 2.40107e+21 1.59671e-05 -1.33652 0.368091 2.343 
0.0184375 0.00914062 2.05463 2.40998e+21 1.60264e-05 3.61836 -0.161774 -0.325399 
0.0190625 0.00904687 2.00321 2.47098e+21 1.6432e-05 0.688254 -1.80568 2.12269 
0.0196875 0.00904687 2.00223 2.51602e+21 1.67315e-05 -0.133886 -0.0906358 0.636166 
0.0190625 0.00914062 1.9479 2.44861e+21 1.62833e-05 -0.224631 -0.148142 1.86336 
0.0196875 0.00914062 1.93076 2.64771e+21 1.76073e-05 2.01024 -2.38562 0.869643 
0.0190625 0.00923437 2.06087 2.57671e+21 1.71351e-05 1.44398 1.61194 3.11487 
0.0196875 0.00923437 2.02521 2.5267e+21 1.68026e-05 3.45608 0.803186 3.20625 
0.0190625 0.00932812 1.88107 2.53917e+21 1.68854e-05 2.69591 0.594052 -1.69036 
0.0196875 0.00932812 1.95409 2.51005e+21 1.66918e-05 2.02585 -1.8031 -0.651447 
0.0159375 0.00942187 1.96631 2.46201e+21 1.63723e-05 1.39083 0.0463714 -0.101465 
0.0153125 0.00951562 2.01367 2.62044e+21 1.74259e-05 1.36271 -0.625955 -1.21119 
0.0159375 0.00951562 1.98278 2.42633e+21 1.61351e-05 5.35302 -3.08504 0.203965 
0.0171875 0.00942187 2.0507 2.35246e+21 1.56438e-05 6.36886 -1.6172 -0.259096 
0.0165625 0.00951562 1.94449 2.58048e+21 1.71602e-05 3.29289 -5.98832 -4.42723 
0.0171875 0.00951562 2.10198 2.55479e+21 1.69893e-05 4.77246 -0.817733 1.06027 
0.0153125 0.00960937 2.0244 2.48463e+21 1.65228e-05 2.96198 -3.45503 3.53457 
0.0159375 0.00960937 1.96869 2.52138e+21 1.67672e-05 2.04786 1.45129 -3.2337 
0.0153125 0.00970312 2.00533 2.46063e+21 1.63632e-05 2.20776 -3.84086 -2.96287 
0.0178125 0.00942187 1.97256 2.413e+21 1.60464e-05 2.19641 2.9249 0.454803 
0.0184375 0.00942187 2.01857 2.45336e+21 1.63148e-05 0.265427 -1.55706 1.97445 
0.0178125 0.00951562 1.98539 2.58048e+21 1.71602e-05 1.50401 1.55013 0.760296 
0.0184375 0.00951562 1.95796 2.46344e+21 1.63819e-05 5.64863 -1.06245 2.34792 
0.0178125 0.00960937 1.99899 2.45071e+21 1.62973e-05 6.23865 3.29678 4.23944 
0.0184375 0.00960937 1.97957 2.43093e+21 1.61657e-05 0.67219 -0.926377 0.0991363 
0.0178125 0.00970312 2.02532 2.51662e+21 1.67355e-05 -2.40862 -3.19221 -1.73859 
0.0184375 0.00970312 1.90831 2.51102e+21 1.66983e-05 4.31024 -1.80626 2.77237 
0.0109375 0.00979687 1.91451 2.56185e+21 1.70363e-05 5.67858 0.304297 -0.566667 
0.0103125 0.00989062 1.87135 2.80121e+21 1.8628e-05 5.92605 0.0783672 -1.61477 
0.0109375 0.00989062 1.99573 2.71333e+21 1.80436e-05 5.06047 -1.00193 -0.192372 
0.0121875 0.00979687 2.07247 2.64502e+21 1.75894e-05 4.22742 -3.17477 0.911563 
0.0115625 0.00989062 2.06123 2.64742e+21 1.76053e-05 2.38498 -1.293 -0.450676 
0.0121875 0.00989062 2.07243 2.61446e+21 1.73862e-05 6.06601 -3.51634 -0.0108628 
0.0134375 0.00979687 1.99252 2.49253e+21 1.65753e-05 3.68389 -2.93899 1.15903 
0.0134375 0.00989062 1.93067 2.56777e+21 1.70757e-05 2.9421 -4.4973 2.2228 
0.0140625 0.00979687 2.03724 2.43708e+21 1.62066e-05 1.62372 -6.05837 -1.08229 
0.0146875 0.00979687 2.04077 2.47035e+21 1.64278e-05 4.94909 -0.415712 0.933049 
0.0140625 0.00989062 2.01611 2.45792e+21 1.63452e-05 5.23075 -3.44166 -0.505069 
0.0146875 0.00989062 1.95392 2.58425e+21 1.71853e-05 2.17184 -0.591267 -3.36149 
0.0128125 0.00998437 2.07162 2.59535e+21 1.72591e-05 2.56486 -2.67103 -2.16172 
0.0134375 0.0100781 1.93962 2.76526e+21 1.8389e-05 5.15586 -2.23848 0.276534 
0.0140625 0.00998437 2.00782 2.5083e+21 1.66802e-05 2.85099 -1.1073 0.229122 
0.0146875 0.00998437 1.99844 2.66609e+21 1.77295e-05 2.94759 2.8808 -0.817744 
0.0146875 0.0100781 1.9718 2.39602e+21 1.59335e-05 4.70748 -4.2635 2.21639 
0.0109375 0.0101719 2.01526 2.66501e+21 1.77223e-05 5.70798 0.418927 1.38919 
0.0115625 0.0101719 1.99542 2.67569e+21 1.77933e-05 5.65672 -1.96607 -2.9448 
0.0121875 0.0101719 1.98674 2.60359e+21 1.73139e-05 4.93755 0.411529 1.46358 
0.0115625 0.0102656 1.9435 2.80472e+21 1.86514e-05 4.35626 0.577231 -0.730301 
0.0121875 0.0102656 2.10829 2.65654e+21 1.7666e-05 4.71465 -2.26785 -1.28906 
0.0109375 0.0103594 2.01276 2.60366e+21 1.73143e-05 7.9872 -0.837185 1.23182 
0.0103125 0.0104531 2.00112 2.76221e+21 1.83687e-05 2.63553 0.379025 0.100868 
0.0115625 0.0103594 1.95429 2.73738e+21 1.82036e-05 4.10388 -1.44909 -0.726211 
0.0121875 0.0103594 2.01677 2.53025e+21 1.68261e-05 4.73973 -0.170414 1.05784 
0.0115625 0.0104531 1.96117 2.67126e+21 1.77639e-05 7.20743 -2.99866 0.870948 
0.0128125 0.0101719 2.02015 2.55819e+21 1.7012e-05 5.48827 -2.04812 -0.17338 
0.0134375 0.0101719 2.02862 2.54484e+21 1.69232e-05 3.36558 -1.51165 -1.08328 
0.0128125 0.0102656 1.98855 2.64332e+21 1.7578e-05 6.95276 -2.76541 -6.19219 
0.0146875 0.0101719 1.98585 2.5395e+21 1.68877e-05 2.3655 -2.12059 -0.577228 
0.0140625 0.0102656 1.99817 2.64596e+21 1.75956e-05 6.56052 -3.97353 -1.73422 
0.0134375 0.0103594 1.99342 2.48567e+21 1.65297e-05 5.14 -1.89136 -0.873611 
0.0134375 0.0104531 1.98962 2.46338e+21 1.63815e-05 5.36946 0.704713 0.453375 
0.0140625 0.0103594 1.93721 2.41225e+21 1.60415e-05 -0.749299 -0.170453 -0.86919 
0.0153125 0.00979687 2.0102 2.57571e+21 1.71285e-05 1.5957 -4.65787 -2.56548 
0.0159375 0.00979687 2.0078 2.38718e+21 1.58747e-05 7.82886 -3.60689 -1.5195 
0.0153125 0.00989062 1.96748 2.46616e+21 1.64e-05 1.04991 -1.48434 -0.320601 
0.0153125 0.00998437 2.06099 2.628e+21 1.74762e-05 2.72067 -3.25547 -0.688967 
0.0159375 0.00998437 1.96727 2.55999e+21 1.70239e-05 2.81804 0.335249 1.41498 
0.0153125 0.0100781 1.97599 2.53078e+21 1.68297e-05 6.8624 -1.75401 4.57185 
0.0165625 0.00998437 2.0364 2.35595e+21 1.56671e-05 1.86976 2.76515 -2.23639 
0.0165625 0.0100781 1.99224 2.5227e+21 1.67759e-05 -2.63581 -0.80201 -1.36238 
0.0165625 0.0101719 1.96653 2.57154e+21 1.71008e-05 4.88554 -0.20064 0.353164 
0.0159375 0.0103594 1.98611 2.46207e+21 1.63728e-05 0.833921 -2.49722 -2.64498 
0.0159375 0.0104531 1.95196 2.46078e+21 1.63642e-05 2.89892 0.0504825 1.15884 
0.0171875 0.0103594 2.03903 2.58531e+21 1.71923e-05 1.14907 -4.52803 0.124095 
0.0165625 0.0104531 2.01155 2.39062e+21 1.58976e-05 2.50731 1.82301 1.41883 
0.0190625 0.0101719 2.06075 2.45138e+21 1.63017e-05 3.08794 2.4925 -2.75067 
0.0196875 0.0101719 2.08173 2.56887e+21 1.7083e-05 -0.210661 0.186649 -2.06273 
0.0190625 0.0102656 2.03811 2.40518e+21 1.59944e-05 2.14625 1.05344 -4.3257 
0.0196875 0.0102656 1.95677 2.50043e+21 1.66279e-05 2.17424 1.10454 4.66705 
0.0178125 0.0104531 2.04197 2.49456e+21 1.65888e-05 4.31062 1.28155 -0.658223 
0.0190625 0.0103594 2.03403 2.5722e+21 1.71051e-05 4.19761 -2.79865 4.73608 
0.0196875 0.0104531 1.93827 2.56992e+21 1.70899e-05 4.20607 0.161814 0.0558354 
0.0115625 0.0121406 2.01279 2.66017e+21 1.76901e-05 2.17474 -1.44794 2.09476 
0.0103125 0.0122344 1.97862 2.73303e+21 1.81747e-05 6.18686 -1.72385 -0.565777 
0.0134375 0.0121406 1.97378 2.71163e+21 1.80323e-05 4.73342 -3.19924 -0.747441 
0.0146875 0.0122344 2.02596 2.62203e+21 1.74365e-05 5.18185 -3.37204 1.03349 