ITEM: TIMESTEP
500000
ITEM: NUMBER OF CELLS
51830
ITEM: BOX BOUNDS oo ao pp
0 0.12
0 0.03
-0.1 0.1
ITEM: CELLS xc yc f_out[1] f_out[2] f_out[3] f_out[4] f_out[5] f_out[6] 
0.003 0.00375 0 0 0 0 0 0 
0.003 0.00525 0 0 0 0 0 0 
0.003 0.00675 0 0 0 0 0 0 
0.003 0.00825 0 0 0 0 0 0 
0.003 0.00975 0 0 0 0 0 0 
0.003 0.01125 0 0 0 0 0 0 
0.003 0.01275 0 0 0 0 0 0 
0.003 0.01425 0 0 0 0 0 0 
0.003 0.01575 0 0 0 0 0 0 
0.003 0.01725 0 0 0 0 0 0 
0.003 0.01875 0 0 0 0 0 0 
0.003 0.02025 0 0 0 0 0 0 
0.003 0.02175 0 0 0 0 0 0 
0.003 0.02325 0 0 0 0 0 0 
0.027 0.02325 0 0 0 0 0 0 
0.003 0.02475 0 0 0 0 0 0 
0.027 0.02475 0 0 0 0 0 0 
0.003 0.02625 0 0 0 0 0 0 
0.027 0.02625 0 0 0 0 0 0 
0.003 0.02775 0 0 0 0 0 0 
0.027 0.02775 0 0 0 0 0 0 
0.003 0.02925 0 0 0 0 0 0 
0.027 0.02925 0 0 0 0 0 0 
0.009 0.01425 0 0 0 0 0 0 
0.009 0.01575 0 0 0 0 0 0 
0.009 0.01725 0 0 0 0 0 0 
0.009 0.01875 0 0 0 0 0 0 
0.009 0.02025 0 0 0 0 0 0 
0.009 0.02175 0 0 0 0 0 0 
0.009 0.02325 0 0 0 0 0 0 
0.009 0.02475 0 0 0 0 0 0 
0.009 0.02625 0 0 0 0 0 0 
0.009 0.02775 0 0 0 0 0 0 
0.009 0.02925 0 0 0 0 0 0 
0.015 0.01425 0 0 0 0 0 0 
0.015 0.01575 0 0 0 0 0 0 
0.015 0.01725 0 0 0 0 0 0 
0.015 0.01875 0 0 0 0 0 0 
0.015 0.02025 0 0 0 0 0 0 
0.015 0.02175 0 0 0 0 0 0 
0.015 0.02325 0 0 0 0 0 0 
0.015 0.02475 0 0 0 0 0 0 
0.015 0.02625 0 0 0 0 0 0 
0.015 0.02775 0 0 0 0 0 0 
0.015 0.02925 0 0 0 0 0 0 
0.021 0.02325 0 0 0 0 0 0 
0.021 0.02475 0 0 0 0 0 0 
0.021 0.02625 0 0 0 0 0 0 
0.021 0.02775 0 0 0 0 0 0 
0.021 0.02925 0 0 0 0 0 0 
0.0015 0.000375 0 0 0 0 0 0 
0.0015 0.001125 0 0 0 0 0 0 
0.0015 0.001875 0 0 0 0 0 0 
0.0015 0.002625 0 0 0 0 0 0 
0.0045 0.002625 0 0 0 0 0 0 
0.0255 0.022125 0 0 0 0 0 0 
0.0285 0.022125 0 0 0 0 0 0 
0.0105 0.000375 1.99387 5.75494e+21 3.82703e-05 6.07295 -0.82153 -2.0211 
0.0075 0.013125 0 0 0 0 0 0 
0.0105 0.013125 0 0 0 0 0 0 
0.0135 0.013125 0 0 0 0 0 0 
0.0165 0.013125 0 0 0 0 0 0 
0.0195 0.022125 0 0 0 0 0 0 
0.0225 0.022125 0 0 0 0 0 0 
0.00375 0.0001875 1.89052 1.28953e+22 8.57538e-05 29.7231 1.63269 -0.206313 
0.00525 0.0001875 1.81767 1.03972e+22 6.91412e-05 48.0064 -2.34775 1.16505 
0.00375 0.0020625 0 0 0 0 0 0 
0.00525 0.0020625 0 0 0 0 0 0 
0.00675 0.0001875 1.59417 6.53408e+21 4.34516e-05 54.7694 4.37528 -2.62437 
0.00825 0.0001875 1.95824 5.55321e+21 3.69289e-05 27.7657 -3.02977 -3.22983 
0.01125 0.0016875 0 0 0 0 0 0 
0.01125 0.0020625 0 0 0 0 0 0 
0.01125 0.0039375 0 0 0 0 0 0 
0.01125 0.0043125 0 0 0 0 0 0 
0.01125 0.0054375 0 0 0 0 0 0 
0.01125 0.0058125 0 0 0 0 0 0 
0.01125 0.0061875 0 0 0 0 0 0 
0.01125 0.0065625 0 0 0 0 0 0 
0.01125 0.0069375 0 0 0 0 0 0 
0.01125 0.0073125 0 0 0 0 0 0 
0.01125 0.0076875 0 0 0 0 0 0 
0.01125 0.0080625 0 0 0 0 0 0 
0.01125 0.0084375 0 0 0 0 0 0 
0.01125 0.0088125 0 0 0 0 0 0 
0.01125 0.0091875 0 0 0 0 0 0 
0.02475 0.0009375 2.00715 3.009e+21 2.00098e-05 1.56116 -0.809901 0.222769 
0.02625 0.0009375 1.97809 2.92751e+21 1.94679e-05 3.23721 0.366685 -4.07732 
0.02775 0.0009375 2.06336 2.93656e+21 1.95281e-05 3.20883 3.75582 0.892284 
0.02925 0.0009375 2.08664 2.93958e+21 1.95482e-05 2.2254 1.96647 -0.364058 
0.01125 0.0031875 0 0 0 0 0 0 
0.01125 0.0035625 0 0 0 0 0 0 
0.01125 0.0046875 0 0 0 0 0 0 
0.01125 0.0050625 0 0 0 0 0 0 
0.01575 0.0009375 1.98156 3.11764e+21 2.07323e-05 1.25759 1.58835 -1.06832 
0.01725 0.0009375 2.01418 3.02107e+21 2.00901e-05 -0.75797 0.331151 1.46627 
0.02175 0.0009375 2.11434 2.92751e+21 1.94679e-05 0.270859 -0.881953 4.13991 
0.02325 0.0009375 1.94689 2.85507e+21 1.89862e-05 0.892471 -0.501717 1.01729 
0.003375 0.00046875 1.87761 1.35018e+22 8.9787e-05 29.6098 -1.8095 -4.5201 
0.004125 0.00046875 1.84162 1.21205e+22 8.06012e-05 37.2434 2.95109 4.55045 
0.003375 0.00065625 1.86055 1.31614e+22 8.75234e-05 29.5379 -1.39672 2.72403 
0.004125 0.00065625 1.92241 1.22447e+22 8.1427e-05 34.68 -0.366318 -2.69453 
0.004875 0.00046875 1.91707 1.08408e+22 7.20915e-05 46.38 -2.51115 1.94331 
0.005625 0.00046875 1.75541 9.63361e+21 6.40635e-05 47.9779 0.612456 1.02935 
0.004875 0.00065625 1.75907 1.11237e+22 7.39724e-05 41.0512 -1.3805 1.3685 
0.005625 0.00065625 1.9524 9.0369e+21 6.00954e-05 47.3076 1.20216 -1.05473 
0.003375 0.00084375 1.93666 1.35018e+22 8.9787e-05 27.9166 -6.06071 4.12232 
0.004875 0.00084375 1.91287 1.11735e+22 7.43037e-05 39.9781 1.26258 -0.317941 
0.005625 0.00084375 1.83179 9.21511e+21 6.12805e-05 47.022 -1.90703 -1.96122 
0.004875 0.00103125 1.86168 1.06235e+22 7.06465e-05 33.4032 -1.3226 1.22887 
0.005625 0.00103125 1.90972 9.46021e+21 6.29104e-05 38.1434 1.46847 1.84937 
0.003375 0.00121875 1.96456 1.54324e+22 0.000102625 20.6487 -3.2094 0.446252 
0.029625 0.00384375 2.02228 3.10049e+21 2.06183e-05 -0.390672 -1.10739 1.65585 
0.028875 0.00403125 2.00308 2.9254e+21 1.94539e-05 -1.09027 -2.95516 -1.47711 
0.024375 0.0216562 1.95881 3.16872e+21 2.1072e-05 1.47865 0.835231 2.93602 
0.025875 0.0216562 1.92351 2.91122e+21 1.93596e-05 6.39273 4.40232 1.76199 
0.026625 0.0216562 2.04626 2.96844e+21 1.97401e-05 -1.4171 -2.01774 -1.39697 
0.027375 0.0216562 1.94712 3.15441e+21 2.09769e-05 -1.6725 -0.360558 0.405915 
0.028125 0.0216562 1.98649 3.01136e+21 2.00255e-05 -0.581333 -2.39806 1.09741 
0.028875 0.0216562 2.04516 2.70378e+21 1.79802e-05 -0.990445 1.46951 0.739028 
0.029625 0.0216562 1.95065 2.81108e+21 1.86937e-05 3.22448 -1.34654 1.08428 
0.006375 0.00084375 1.77355 7.48476e+21 4.97737e-05 50.2121 3.52184 0.504861 
0.007125 0.00084375 1.7913 5.78124e+21 3.84453e-05 52.2133 8.39342 0.268414 
0.006375 0.00103125 1.76052 6.88115e+21 4.57597e-05 48.9246 5.78208 -4.0499 
0.007125 0.00103125 1.83256 5.50931e+21 3.66369e-05 48.844 13.3828 -1.70724 
0.006375 0.00121875 1.77109 6.64899e+21 4.42158e-05 43.2075 8.47845 3.27196 
0.007125 0.00121875 1.83008 4.86602e+21 3.23591e-05 38.937 16.5346 -2.13878 
0.006375 0.00140625 1.83954 6.13268e+21 4.07823e-05 39.9529 7.99826 -0.148611 
0.007125 0.00140625 1.88696 4.69206e+21 3.12022e-05 33.5177 16.5879 0.729642 
0.006375 0.00196875 1.90291 3.31985e+21 2.2077e-05 0.418971 6.74671 -0.100492 
0.007125 0.00196875 1.96883 3.79412e+21 2.52309e-05 9.71258 14.1183 0.2346 
0.006375 0.00215625 1.98849 3.69055e+21 2.45422e-05 4.962 2.222 -5.46585 
0.007125 0.00215625 1.92802 4.01532e+21 2.67019e-05 9.58199 16.7804 -2.59338 
0.007875 0.00196875 1.99796 4.39773e+21 2.92449e-05 11.6656 20.8831 3.25405 
0.008625 0.00196875 1.94476 4.24826e+21 2.8251e-05 7.46819 17.4046 0.404691 
0.007875 0.00215625 2.02235 4.15703e+21 2.76443e-05 7.82715 17.5709 4.24239 
0.008625 0.00215625 2.17864 4.40373e+21 2.92848e-05 4.88511 17.6282 -4.13799 
0.006375 0.00234375 1.92801 3.69409e+21 2.45657e-05 0.914403 1.66867 6.06772 
0.007125 0.00234375 1.94195 3.87759e+21 2.5786e-05 3.26999 10.234 -0.515623 
0.006375 0.00253125 2.01211 3.94023e+21 2.62025e-05 -2.31369 -2.41061 2.04024 
0.007125 0.00253125 1.8913 3.64849e+21 2.42624e-05 -0.368034 8.81309 0.492036 
0.007875 0.00234375 2.07733 3.92105e+21 2.6075e-05 4.29176 15.2082 -1.3371 
0.008625 0.00234375 1.94722 4.41842e+21 2.93825e-05 -0.0205154 20.1068 5.74707 
0.006375 0.00271875 1.98935 3.528e+21 2.34612e-05 0.271508 3.56073 0.412921 
0.007125 0.00271875 1.88385 3.93803e+21 2.61879e-05 -0.749897 6.22811 3.45856 
0.006375 0.00290625 1.94876 3.67277e+21 2.44239e-05 -6.64529 0.347861 2.50729 
0.007125 0.00290625 1.90761 3.90983e+21 2.60004e-05 2.24443 9.04798 2.98528 
0.008625 0.00309375 1.94365 4.0826e+21 2.71493e-05 1.39639 13.8993 1.36908 
0.006375 0.00346875 1.99603 3.91531e+21 2.60368e-05 -3.34662 -0.279602 2.56188 
0.006375 0.00365625 1.99632 4.02794e+21 2.67858e-05 5.46041 3.21863 -1.69378 
0.006375 0.00384375 2.01576 3.84801e+21 2.55893e-05 1.76863 6.7211 2.54765 
0.006375 0.00403125 1.96814 3.9375e+21 2.61844e-05 0.380361 6.20898 1.92201 
0.006375 0.00421875 1.99715 3.55627e+21 2.36492e-05 1.01656 2.26457 -4.29012 
0.006375 0.00440625 1.97804 3.56387e+21 2.36997e-05 -1.34596 1.41372 0.0534615 
0.006375 0.00459375 1.99582 3.64938e+21 2.42683e-05 -1.02105 6.98152 -1.42315 
0.006375 0.00478125 1.98801 3.61722e+21 2.40545e-05 0.983117 4.73465 -1.46411 
0.006375 0.00496875 1.95734 3.64301e+21 2.4226e-05 -2.03383 4.65407 0.955336 
0.006375 0.00515625 2.03953 3.54346e+21 2.3564e-05 3.0391 7.26093 -0.391521 
0.006375 0.00553125 1.97115 3.69072e+21 2.45433e-05 -0.591788 2.90109 2.49413 
0.006375 0.00590625 1.9963 3.57136e+21 2.37495e-05 -1.61765 2.35417 2.20766 
0.006375 0.00646875 1.99206 3.56589e+21 2.37132e-05 1.61797 1.70791 -0.834467 
0.010125 0.00684375 0 0 0 0 0 0 
0.010125 0.00703125 0 0 0 0 0 0 
0.010125 0.00871875 0 0 0 0 0 0 
0.010125 0.00890625 0 0 0 0 0 0 
0.010125 0.00946875 1.83829 3.28994e+21 2.18781e-05 6.43119 -1.53373 -0.174291 
0.010875 0.00946875 1.96733 2.96847e+21 1.97403e-05 1.56901 -3.97246 1.23483 
0.011625 0.00946875 1.86218 3.15998e+21 2.10139e-05 4.69359 2.0882 2.46478 
0.014625 0.00384375 1.93618 3.03572e+21 2.01875e-05 1.6947 0.649902 2.32021 
0.013875 0.00403125 1.88332 2.94786e+21 1.96033e-05 0.853608 2.38301 -1.23854 
0.015375 0.00421875 1.96791 2.86245e+21 1.90353e-05 5.14289 1.98019 -1.88433 
0.016125 0.00421875 1.96442 2.99659e+21 1.99273e-05 1.79276 -2.28914 2.10229 
0.017625 0.00421875 2.07121 2.97244e+21 1.97667e-05 -0.648985 -0.431207 2.75662 
0.016875 0.00440625 1.96034 2.91274e+21 1.93697e-05 1.03668 0.824997 -0.681706 
0.016875 0.00515625 1.98509 2.97635e+21 1.97927e-05 -0.0661309 0.344869 3.7661 
0.012375 0.00871875 1.95676 2.84281e+21 1.89047e-05 1.29582 -1.53896 -2.87905 
0.012375 0.00890625 2.11008 2.74484e+21 1.82532e-05 -3.3366 5.14457 8.99473 
0.012375 0.00909375 2.00821 2.5949e+21 1.72561e-05 8.01102 -14.4195 -12.4234 
0.012375 0.00928125 1.96201 2.9083e+21 1.93402e-05 -3.40807 4.46623 -2.32957 
0.012375 0.00946875 1.95725 2.96517e+21 1.97184e-05 1.42331 4.47416 3.27968 
0.019875 0.00346875 1.96476 2.94301e+21 1.9571e-05 1.6975 0.339796 1.05671 
0.020625 0.00346875 1.96141 3.12246e+21 2.07643e-05 -0.771442 -1.03727 0.924717 
0.020625 0.00365625 2.02425 2.86947e+21 1.9082e-05 -1.62447 2.53982 0.2571 
0.018375 0.00384375 2.07734 2.89733e+21 1.92672e-05 0.278244 3.19989 -0.898541 
0.019125 0.00403125 2.03807 3.0742e+21 2.04434e-05 2.07151 3.05863 0.963874 
0.019875 0.00403125 2.02169 2.98997e+21 1.98833e-05 1.60606 -1.8438 -0.158708 
0.020625 0.00403125 1.98422 2.95628e+21 1.96593e-05 1.82255 -0.69507 -0.387089 
0.018375 0.0128438 0 0 0 0 0 0 
0.018375 0.0130313 0 0 0 0 0 0 
0.018375 0.0135938 0 0 0 0 0 0 
0.018375 0.0137813 0 0 0 0 0 0 
0.018375 0.0147187 0 0 0 0 0 0 
0.018375 0.0149062 0 0 0 0 0 0 
0.018375 0.0158438 0 0 0 0 0 0 
0.018375 0.0160313 0 0 0 0 0 0 
0.018375 0.0162188 0 0 0 0 0 0 
0.018375 0.0164062 0 0 0 0 0 0 
0.018375 0.0165937 0 0 0 0 0 0 
0.018375 0.0167812 0 0 0 0 0 0 
0.018375 0.0169687 0 0 0 0 0 0 
0.018375 0.0171562 0 0 0 0 0 0 
0.018375 0.0173437 0 0 0 0 0 0 
0.018375 0.0175312 0 0 0 0 0 0 
0.018375 0.0177187 0 0 0 0 0 0 
0.018375 0.0179062 0 0 0 0 0 0 
0.018375 0.0195938 0 0 0 0 0 0 
0.018375 0.0197812 0 0 0 0 0 0 
0.018375 0.0199687 0 0 0 0 0 0 
0.018375 0.0201562 0 0 0 0 0 0 
0.018375 0.0203437 0 0 0 0 0 0 
0.018375 0.0205312 0 0 0 0 0 0 
0.018375 0.0207187 0 0 0 0 0 0 
0.018375 0.0209062 0 0 0 0 0 0 
0.018375 0.0210937 0 0 0 0 0 0 
0.018375 0.0212812 0 0 0 0 0 0 
0.019875 0.0216562 2.03332 3.08646e+21 2.0525e-05 0.524284 0.200278 -2.90863 
0.020625 0.0216562 2.05999 2.91479e+21 1.93834e-05 -0.736871 -1.86572 -0.449459 
0.021375 0.0216562 2.00054 2.98632e+21 1.9859e-05 0.961471 0.817246 -1.72425 
0.022125 0.0216562 1.95897 2.82538e+21 1.87888e-05 0.112584 3.93439 1.38507 
0.022875 0.0216562 1.96469 2.84326e+21 1.89077e-05 -0.0956271 5.09458 -2.50508 
0.023625 0.0216562 1.93101 2.84684e+21 1.89315e-05 -0.121347 1.20674 2.15465 
0.01125 0.0024375 0 0 0 0 0 0 
0.01125 0.0028125 0 0 0 0 0 0 
0.01875 0.0009375 2.08995 2.92751e+21 1.94679e-05 0.684108 2.31868 0.05909 
0.02025 0.0009375 1.99584 2.9094e+21 1.93475e-05 0.203807 -1.97267 0.661591 
0.027375 0.00271875 1.90782 2.95144e+21 1.96271e-05 0.00346211 2.10236 3.5477 
0.028125 0.00271875 1.98692 2.98058e+21 1.98209e-05 -0.684589 3.06803 3.74897 
0.027375 0.00290625 2.01123 3.15045e+21 2.09505e-05 -4.26067 0.0955865 -3.28442 
0.028125 0.00290625 2.00362 2.8506e+21 1.89565e-05 4.08404 2.71997 -3.73724 
0.025875 0.00309375 1.97749 2.95952e+21 1.96808e-05 0.791414 -1.4201 0.697173 
0.026625 0.00309375 2.04076 2.87172e+21 1.90969e-05 -4.1683 -1.31885 -1.17955 
0.025875 0.00328125 2.00391 2.91802e+21 1.94048e-05 0.183598 2.07453 -0.843601 
0.026625 0.00328125 2.02113 2.93527e+21 1.95195e-05 1.79065 2.77239 7.26701 
0.025875 0.00384375 2.07818 3.00333e+21 1.99721e-05 6.04647 2.21631 3.82195 
0.007875 0.00159375 2.06459 4.76497e+21 3.1687e-05 23.213 17.8622 -1.65368 
0.008625 0.00159375 1.90947 4.80757e+21 3.19704e-05 12.233 20.7459 1.22483 
0.007875 0.00178125 1.98211 4.56202e+21 3.03374e-05 17.4964 15.6614 0.620806 
0.008625 0.00178125 1.98962 4.53025e+21 3.01262e-05 9.9805 17.45 -4.69349 
0.007875 0.00271875 1.90202 3.87975e+21 2.58004e-05 4.1307 14.0277 -3.13545 
0.008625 0.00271875 1.96843 4.14201e+21 2.75444e-05 0.899638 17.4397 0.124885 
0.007875 0.00290625 1.94725 3.98772e+21 2.65183e-05 -4.98023 10.8454 -0.0611355 
0.006375 0.00309375 2.00553 3.53935e+21 2.35367e-05 3.07063 2.89368 -1.80572 
0.007125 0.00309375 1.98491 3.90334e+21 2.59572e-05 -0.578195 8.98415 -1.68959 
0.006375 0.00328125 1.92795 3.81568e+21 2.53742e-05 -2.47933 2.55282 -0.834503 
0.010125 0.00721875 0 0 0 0 0 0 
0.010125 0.00740625 0 0 0 0 0 0 
0.010125 0.00759375 0 0 0 0 0 0 
0.010125 0.00778125 0 0 0 0 0 0 
0.010125 0.00909375 0 0 0 0 0 0 
0.010125 0.00928125 0 0 0 0 0 0 
0.013875 0.00346875 2.10676 2.72766e+21 1.8139e-05 2.26508 0.4407 0.773641 
0.014625 0.00346875 2.03176 2.91364e+21 1.93757e-05 2.8837 0.054919 1.15104 
0.013875 0.00365625 2.02367 2.86328e+21 1.90408e-05 3.14265 -3.09083 1.72615 
0.015375 0.00365625 2.02915 3.00876e+21 2.00083e-05 0.849993 -0.264864 1.75533 
0.016125 0.00365625 2.00563 2.99948e+21 1.99465e-05 -0.389207 -3.9643 0.841259 
0.016875 0.00346875 2.02422 2.88754e+21 1.92021e-05 -2.27235 0.17537 2.50827 
0.016875 0.00365625 1.88056 2.84161e+21 1.88967e-05 -1.58506 0.142788 0.240865 
0.017625 0.00365625 1.96553 2.89423e+21 1.92466e-05 -2.21812 -5.31848 -1.61975 
0.016875 0.00459375 2.05941 2.8924e+21 1.92345e-05 -0.616679 -1.26145 2.37817 
0.012375 0.00646875 2.16099 2.75561e+21 1.83248e-05 -4.78462 -6.36559 5.84345 
0.012375 0.00665625 2.02303 2.80551e+21 1.86566e-05 7.06744 8.35007 2.19475 
0.012375 0.00684375 2.07051 3.05112e+21 2.029e-05 0.35578 1.60627 -7.50715 
0.012375 0.00703125 1.83758 3.4285e+21 2.27996e-05 0.899456 -11.9108 -2.09115 
0.021375 0.00271875 2.03313 3.11379e+21 2.07067e-05 0.900844 1.45313 -0.694955 
0.022125 0.00271875 1.95334 2.99724e+21 1.99316e-05 2.27112 5.28637 -0.267348 
0.021375 0.00290625 2.06318 2.93238e+21 1.95003e-05 -1.22055 1.9519 -1.18276 
0.021375 0.00421875 1.97633 2.80612e+21 1.86607e-05 3.619 -3.96381 3.21277 
0.018375 0.0132188 0 0 0 0 0 0 
0.018375 0.0134063 0 0 0 0 0 0 
0.018375 0.0150937 0 0 0 0 0 0 
0.018375 0.0152812 0 0 0 0 0 0 
0.018375 0.0154687 0 0 0 0 0 0 
0.018375 0.0156563 0 0 0 0 0 0 
0.018375 0.0180937 0 0 0 0 0 0 
0.018375 0.0182812 0 0 0 0 0 0 
0.018375 0.0184687 0 0 0 0 0 0 
0.018375 0.0186562 0 0 0 0 0 0 
0.018375 0.0188437 0 0 0 0 0 0 
0.018375 0.0190312 0 0 0 0 0 0 
0.018375 0.0192187 0 0 0 0 0 0 
0.018375 0.0194062 0 0 0 0 0 0 
0.024375 0.00196875 1.98366 2.78235e+21 1.85027e-05 2.48474 3.53576 1.25136 
0.025125 0.00196875 2.13888 3.01805e+21 2.007e-05 1.58488 -7.75977 -1.96962 
0.024375 0.00215625 1.96734 2.78185e+21 1.84993e-05 4.33291 -1.80946 -1.61977 
0.025125 0.00215625 2.03967 3.08103e+21 2.04889e-05 -2.77202 4.95754 2.63289 
0.009375 0.00459375 1.99419 3.60144e+21 2.39496e-05 -1.56535 7.05064 2.90716 
0.010125 0.00459375 0 0 0 0 0 0 
0.010125 0.00478125 0 0 0 0 0 0 
0.010125 0.00496875 0 0 0 0 0 0 
0.010125 0.00515625 0 0 0 0 0 0 
0.0039375 0.000796875 1.94546 1.2271e+22 8.16024e-05 31.336 -4.91437 1.18433 
0.0043125 0.000796875 1.70532 1.04531e+22 6.95131e-05 32.8777 -3.22409 3.40187 
0.0039375 0.000890625 1.87377 1.27584e+22 8.48434e-05 32.4379 -4.98306 3.09187 
0.0043125 0.000890625 1.96799 1.14368e+22 7.60548e-05 32.8471 -2.9989 3.88012 
0.0286875 0.00848438 2.02685 2.91867e+21 1.94092e-05 1.5649 -0.896835 0.997765 
0.0290625 0.00848438 1.90893 2.94535e+21 1.95866e-05 1.58944 5.51337 -1.9351 
0.0286875 0.00857813 1.93096 2.91844e+21 1.94076e-05 -2.95861 3.33229 -2.78073 
0.0290625 0.00857813 1.99624 2.84455e+21 1.89163e-05 0.280624 -2.71503 -1.78627 
0.0241875 0.00904687 1.98232 3.00241e+21 1.9966e-05 -1.56564 0.6022 -3.87469 
0.0245625 0.00904687 2.02633 3.00241e+21 1.9966e-05 -2.4236 0.618191 2.26048 
0.0241875 0.00914062 2.028 2.87752e+21 1.91355e-05 3.68291 0.839327 1.29641 
0.0245625 0.00914062 2.00606 3.07067e+21 2.042e-05 3.75968 2.87427 0.186257 
0.0256875 0.00960937 2.08496 3.0575e+21 2.03324e-05 3.30055 3.37719 -2.41268 
0.0260625 0.00960937 2.03838 3.03395e+21 2.01758e-05 2.3868 1.05647 1.01044 
0.0256875 0.00970312 2.05175 2.81801e+21 1.87398e-05 -0.188966 1.69166 1.56916 
0.0260625 0.00970312 1.99984 2.90666e+21 1.93293e-05 -1.40354 -1.44557 0.841583 
0.0249375 0.00998437 1.90959 3.02428e+21 2.01115e-05 -0.75702 1.48455 -0.307968 
0.0253125 0.00998437 2.00513 2.99708e+21 1.99306e-05 2.26921 4.72648 -4.18315 
0.0249375 0.0100781 2.11339 2.90182e+21 1.92971e-05 -0.482158 1.03757 4.68176 
0.0253125 0.0100781 1.92666 3.03658e+21 2.01932e-05 0.147658 4.79179 0.487261 
0.0249375 0.0103594 1.94981 2.84052e+21 1.88894e-05 -1.55273 0.173018 4.06453 
0.0253125 0.0103594 1.98596 2.88859e+21 1.92091e-05 4.10159 -0.229048 1.53532 
0.0249375 0.0104531 1.99294 2.84969e+21 1.89504e-05 -0.384605 -1.60108 2.84845 
0.0253125 0.0104531 1.99762 3.07056e+21 2.04192e-05 3.25412 -5.54294 2.72092 
0.0294375 0.0101719 2.04304 2.86617e+21 1.90601e-05 -3.1114 4.13945 5.78476 
0.0298125 0.0101719 2.0252 2.81722e+21 1.87345e-05 2.44723 1.42633 -4.04287 
0.0294375 0.0102656 1.89244 3.02522e+21 2.01177e-05 2.65325 -1.11801 -1.40696 
0.0298125 0.0102656 1.93437 2.95907e+21 1.96778e-05 0.903777 0.820142 0.183264 
0.0241875 0.0109219 1.86614 2.90976e+21 1.93499e-05 -0.590256 -2.71514 -0.845113 
0.0245625 0.0109219 2.09911 2.98437e+21 1.98461e-05 2.88716 0.651178 4.09394 
0.0241875 0.0110156 2.00515 2.91377e+21 1.93765e-05 -4.36729 1.07376 -1.32244 
0.0245625 0.0110156 2.01728 2.88089e+21 1.91579e-05 3.15437 3.69099 5.82505 
0.0271875 0.0109219 2.03402 2.9595e+21 1.96807e-05 5.23206 -0.751011 -1.16618 
0.0275625 0.0109219 2.00283 2.84759e+21 1.89365e-05 1.0826 1.24562 -1.62005 
0.0271875 0.0110156 2.06563 2.9261e+21 1.94585e-05 2.49581 -2.07329 -1.01565 
0.0275625 0.0110156 1.96248 2.81102e+21 1.86933e-05 0.292488 4.52649 -2.33239 
0.0264375 0.0112969 1.88636 3.08167e+21 2.04931e-05 -0.901039 -5.16574 0.686542 
0.0268125 0.0112969 2.05923 2.96545e+21 1.97203e-05 0.395364 3.2423 -1.1927 
0.0264375 0.0113906 1.9731 2.80194e+21 1.86329e-05 3.64781 1.08851 -0.770894 
0.0268125 0.0113906 2.04597 3.02053e+21 2.00865e-05 1.53709 2.80403 -2.94366 
0.0249375 0.0116719 2.06341 2.89345e+21 1.92414e-05 3.31034 0.960505 0.752478 
0.0253125 0.0116719 1.97414 2.9749e+21 1.97831e-05 3.02035 1.88736 -3.52843 
0.0249375 0.0117656 2.07504 2.90502e+21 1.93184e-05 5.43292 1.84513 0.0420409 
0.0253125 0.0117656 1.85824 2.94735e+21 1.95999e-05 5.02409 3.04798 1.55692 
0.0264375 0.0116719 1.94369 2.92836e+21 1.94736e-05 -0.393675 -0.785091 -2.01461 
0.0268125 0.0116719 2.00546 2.92836e+21 1.94736e-05 2.84287 0.630156 -0.359017 
0.0264375 0.0117656 1.98863 3.06278e+21 2.03675e-05 -0.606379 -2.79642 6.64065 
0.0268125 0.0117656 2.03082 2.88578e+21 1.91905e-05 1.17802 -0.335316 0.00402423 
0.0271875 0.0112969 2.0751 2.98148e+21 1.98269e-05 4.84735 -0.536774 3.56122 
0.0275625 0.0112969 1.96743 2.96545e+21 1.97203e-05 -0.0987119 -2.35009 1.1849 
0.0271875 0.0113906 2.09953 3.02053e+21 2.00865e-05 -3.37051 -1.06819 -3.60555 
0.0275625 0.0113906 1.98946 2.94502e+21 1.95844e-05 3.71041 2.1642 3.52185 
0.0294375 0.0112969 1.94633 2.90534e+21 1.93205e-05 0.207378 0.7283 -1.65374 
0.0298125 0.0112969 1.93274 3.1017e+21 2.06263e-05 0.192563 1.81769 2.79112 
0.0294375 0.0113906 1.95296 3.02848e+21 2.01394e-05 -0.624965 -3.48483 3.15345 
0.0298125 0.0113906 1.9831 3.2431e+21 2.15666e-05 3.21587 -1.44291 -1.6313 
0.0241875 0.0122344 2.00252 2.91953e+21 1.94149e-05 -1.22138 -0.466752 -1.3503 
0.0245625 0.0122344 2.03347 2.80112e+21 1.86274e-05 2.07289 2.75114 -1.94236 
0.0241875 0.0123281 1.9467 3.06257e+21 2.03661e-05 -1.44264 0.398997 1.65472 
0.0245625 0.0123281 2.04209 2.84592e+21 1.89253e-05 3.19341 0.0916869 -0.955808 
0.0241875 0.0126094 1.87879 3.03017e+21 2.01506e-05 0.941605 -4.71206 0.123844 
0.0245625 0.0126094 2.02994 2.92246e+21 1.94344e-05 3.59556 -4.23976 2.60079 
0.0241875 0.0127031 1.96895 2.96147e+21 1.96938e-05 0.928304 1.22067 -0.721889 
0.0245625 0.0127031 1.99443 2.97217e+21 1.97649e-05 -0.522363 -0.737105 7.60784 
0.0264375 0.0126094 1.9656 3.02299e+21 2.01029e-05 3.23948 -1.74366 -0.661397 
0.0268125 0.0126094 1.99911 2.97272e+21 1.97686e-05 2.99482 -1.09254 3.38879 
0.0264375 0.0127031 1.99226 2.9686e+21 1.97412e-05 3.58628 -4.97081 0.214696 
0.0268125 0.0127031 2.01835 2.80111e+21 1.86274e-05 0.83264 0.20523 2.27058 
0.0241875 0.0129844 1.95336 2.97403e+21 1.97773e-05 -0.216957 -1.37881 0.211317 
0.0245625 0.0129844 1.95871 2.97054e+21 1.97541e-05 -0.208171 -2.38877 3.23546 
0.0241875 0.0130781 2.01649 2.95617e+21 1.96586e-05 -1.40683 -1.28825 -2.84098 
0.0245625 0.0130781 1.95716 2.85925e+21 1.9014e-05 2.70921 -0.238403 -3.30811 
0.0249375 0.0131719 1.98623 2.72204e+21 1.81016e-05 4.90859 2.76979 1.93888 
0.0253125 0.0131719 2.01934 2.83203e+21 1.8833e-05 -0.0896673 3.48732 -0.563293 
0.0249375 0.0132656 1.9518 3.08843e+21 2.05381e-05 0.710493 1.32357 -3.39423 
0.0253125 0.0132656 1.96181 3.07478e+21 2.04473e-05 -1.08136 -1.44084 3.67591 
0.0249375 0.0133594 2.0856 2.95155e+21 1.96278e-05 0.86822 2.97834 2.24503 
0.0253125 0.0133594 2.05522 2.68045e+21 1.7825e-05 2.66209 2.07384 1.0281 
0.0249375 0.0134531 1.92998 2.96126e+21 1.96924e-05 2.08022 2.68358 0.345073 
0.0256875 0.0131719 1.98179 2.99012e+21 1.98843e-05 3.70673 2.30095 -2.16429 
0.0260625 0.0131719 1.96622 2.85952e+21 1.90158e-05 -2.22774 2.05956 1.99151 
0.0260625 0.0132656 2.01427 2.97923e+21 1.98119e-05 -3.57935 0.21031 -0.185232 
0.0271875 0.0127969 2.04984 2.82304e+21 1.87732e-05 2.49335 -1.31611 -1.13286 
0.0275625 0.0127969 1.95788 2.91502e+21 1.93849e-05 0.628219 -1.09994 0.626327 
0.0271875 0.0128906 2.00192 2.8903e+21 1.92205e-05 -0.540199 -3.91055 0.642551 
0.0275625 0.0128906 2.03871 2.84465e+21 1.89169e-05 -1.57454 -1.16704 1.39398 
0.0279375 0.0129844 2.07517 2.87989e+21 1.91513e-05 2.03894 -0.144592 1.64428 
0.0279375 0.0130781 2.0353 3.03925e+21 2.0211e-05 2.12586 0.684373 3.35767 
0.0283125 0.0130781 2.04649 2.88002e+21 1.91521e-05 1.66473 0.948661 2.87944 
0.0294375 0.0129844 2.0965 3.01238e+21 2.00324e-05 1.69118 -1.02632 -0.150282 
0.0298125 0.0129844 1.91345 2.89733e+21 1.92672e-05 -0.743908 -0.424261 2.38011 
0.0294375 0.0130781 2.05173 2.8281e+21 1.88068e-05 -1.14027 0.980458 3.01335 
0.0298125 0.0130781 1.97232 2.96656e+21 1.97276e-05 2.1424 0.245331 0.818439 
0.0249375 0.0139219 2.05483 2.79977e+21 1.86185e-05 -1.24862 0.450624 3.71004 
0.0253125 0.0139219 2.0132 3.06642e+21 2.03917e-05 0.224548 0.219621 0.430811 
0.0253125 0.0140156 1.97493 2.88441e+21 1.91813e-05 1.40546 2.11083 -1.47232 
0.0268125 0.0141094 2.04115 2.91658e+21 1.93952e-05 -0.354076 2.49883 -2.66039 
0.0268125 0.0142031 2.00163 3.07901e+21 2.04754e-05 2.97889 2.45518 -0.815597 
0.0279375 0.0136406 2.07235 2.86746e+21 1.90686e-05 3.74016 -0.302663 1.27141 
0.0290625 0.0137344 2.0041 2.93029e+21 1.94864e-05 1.4689 -1.12967 -1.29448 
0.0286875 0.0138281 2.0143 3.04465e+21 2.02469e-05 -2.06421 0.500193 2.31243 
0.0290625 0.0138281 1.90231 3.0381e+21 2.02034e-05 -1.87675 -0.207141 -2.79717 
0.0279375 0.0139219 2.01757 2.94285e+21 1.957e-05 -2.15124 -0.11417 1.3536 
0.0283125 0.0139219 2.01461 2.81928e+21 1.87482e-05 1.98715 2.37338 -0.965197 
0.0279375 0.0140156 2.0458 2.87472e+21 1.91169e-05 1.46312 -1.01299 -3.12467 
0.0283125 0.0140156 1.98083 2.74875e+21 1.82792e-05 -0.881172 -1.85279 -1.69209 
0.0294375 0.0141094 1.99787 2.80428e+21 1.86485e-05 -1.63919 -0.865967 -1.62444 
0.0298125 0.0141094 1.96736 3.00963e+21 2.0014e-05 -1.89657 -3.67453 -2.99094 
0.0294375 0.0142031 2.03742 3.0567e+21 2.0327e-05 2.04979 0.34663 0.480095 
0.0298125 0.0142031 2.00875 2.79533e+21 1.8589e-05 -0.235275 -1.88852 -2.80778 
0.0241875 0.0142969 2.08298 2.83716e+21 1.88671e-05 -1.74362 1.11338 0.375171 
0.0245625 0.0142969 1.97792 2.95432e+21 1.96463e-05 5.45527 -0.13395 0.676714 
0.0241875 0.0143906 1.95901 2.94766e+21 1.96019e-05 2.39387 -2.21534 -0.662533 
0.0245625 0.0143906 1.8406 3.07349e+21 2.04387e-05 2.17306 -0.451964 -1.19919 
0.0241875 0.0144844 1.94618 3.03172e+21 2.0161e-05 0.56178 1.2762 1.58517 
0.0245625 0.0144844 1.95526 3.00359e+21 1.99739e-05 -2.3588 0.291657 -3.25525 
0.0241875 0.0145781 1.90576 2.77622e+21 1.84618e-05 -1.40914 -1.87889 -0.0906552 
0.0264375 0.0142969 1.99714 2.98282e+21 1.98358e-05 1.38774 0.318671 -3.4191 
0.0268125 0.0142969 1.96186 2.89099e+21 1.92251e-05 1.98645 0.795458 -3.54941 
0.0264375 0.0143906 2.03656 2.93508e+21 1.95183e-05 3.40656 -2.97833 4.3772 
0.0268125 0.0143906 2.01484 2.9917e+21 1.98948e-05 1.64364 -2.69555 -3.95343 
0.0249375 0.0146719 2.01871 2.88499e+21 1.91852e-05 -4.76617 1.88166 -0.511472 
0.0249375 0.0147656 1.99968 2.82681e+21 1.87983e-05 -1.69204 2.2767 -2.35866 
0.0249375 0.0148594 2.09834 2.99177e+21 1.98953e-05 0.495341 4.64659 2.00269 
0.0253125 0.0148594 2.0837 2.86381e+21 1.90444e-05 1.27572 -2.96839 -0.682406 
0.0249375 0.0149531 1.97161 3.06081e+21 2.03544e-05 -1.37189 0.757812 -0.88752 
0.0253125 0.0149531 1.99203 2.96393e+21 1.97102e-05 1.78083 -0.876548 1.0491 
0.0256875 0.0146719 1.87768 2.87264e+21 1.91031e-05 1.38404 -1.60344 0.463743 
0.0260625 0.0146719 1.99042 2.93435e+21 1.95135e-05 -4.10176 -2.09968 0.476944 
0.0256875 0.0147656 1.9719 3.14567e+21 2.09187e-05 1.5213 2.29291 0.943697 
0.0260625 0.0147656 2.00233 2.99237e+21 1.98993e-05 2.58536 5.54716 -1.55194 
0.0256875 0.0148594 1.92359 3.0131e+21 2.00371e-05 -0.257448 2.68075 -0.444494 
0.0256875 0.0149531 2.1021 2.76714e+21 1.84015e-05 -3.40922 3.43381 0.117807 
0.0260625 0.0149531 2.05463 2.88824e+21 1.92068e-05 -3.56248 0.919766 3.84492 
0.0290625 0.0144844 1.95816 2.79419e+21 1.85813e-05 0.829695 0.13541 0.56002 
0.0286875 0.0145781 2.07834 3.02465e+21 2.01139e-05 0.0712651 0.692047 0.123314 
0.0290625 0.0145781 1.97165 2.88491e+21 1.91846e-05 -1.08436 -0.901733 2.99154 
0.0294375 0.0144844 2.0136 2.94108e+21 1.95582e-05 -0.388716 1.30787 -0.586599 
0.0294375 0.0145781 1.931 2.91907e+21 1.94118e-05 -0.524341 3.45122 -4.60953 
0.0271875 0.0148594 1.97367 2.8364e+21 1.8862e-05 -2.35292 0.0735956 3.92782 
0.0275625 0.0148594 1.96744 2.81507e+21 1.87202e-05 -0.229853 0.710486 1.15846 
0.0271875 0.0149531 1.94439 3.09412e+21 2.05759e-05 4.81355 -0.259108 -1.31857 
0.0275625 0.0149531 1.99044 3.14256e+21 2.0898e-05 0.377473 0.318907 0.0909154 
0.0286875 0.0146719 1.96375 3.02383e+21 2.01085e-05 2.7239 1.12034 -0.765378 
0.0290625 0.0146719 2.09556 3.03618e+21 2.01906e-05 -3.29807 0.735561 -1.65199 
0.0286875 0.0147656 1.96899 2.80841e+21 1.8676e-05 0.0169912 -0.957626 0.360989 
0.0290625 0.0147656 2.0026 2.79615e+21 1.85944e-05 -0.966145 -2.16425 0.332318 
0.0294375 0.0147656 2.08371 3.04756e+21 2.02663e-05 -1.71243 -0.454795 2.21542 
0.0298125 0.0147656 2.07444 2.90346e+21 1.9308e-05 0.442897 -0.0756697 -4.3644 
0.0286875 0.0148594 2.09786 3.08012e+21 2.04828e-05 1.78614 2.28689 -0.866886 
0.0290625 0.0148594 1.9542 2.97959e+21 1.98142e-05 0.507972 1.78534 -1.13974 
0.0286875 0.0149531 1.9685 2.97302e+21 1.97706e-05 -1.03183 -0.613408 -3.26436 
0.0290625 0.0149531 1.9889 2.96393e+21 1.97102e-05 6.09613 -3.12688 0.728442 
0.0241875 0.0150469 2.00018 2.92441e+21 1.94473e-05 1.16678 1.72362 2.05906 
0.0245625 0.0150469 1.98096 2.99661e+21 1.99275e-05 -3.22732 6.24554 -1.79286 
0.0241875 0.0151406 1.92199 2.88537e+21 1.91877e-05 -0.850177 -1.80439 0.856854 
0.0268125 0.0150469 1.95575 2.97555e+21 1.97874e-05 -1.77982 1.16348 -1.31481 
0.0264375 0.0151406 2.0254 2.92125e+21 1.94263e-05 1.46413 -1.29445 0.257708 
0.0245625 0.0154219 1.9787 2.93549e+21 1.9521e-05 1.37249 -1.61472 2.19653 
0.0241875 0.0155156 2.04908 2.99653e+21 1.99269e-05 2.15622 2.97567 1.32691 
0.0245625 0.0155156 2.04034 3.02279e+21 2.01016e-05 3.46451 -5.37214 1.12344 
0.0241875 0.0156094 2.0528 2.88573e+21 1.91901e-05 -2.11947 2.00338 0.969578 
0.0245625 0.0157031 2.0156 3.07895e+21 2.0475e-05 -0.757055 -3.47497 -0.337214 
0.0249375 0.0156094 2.10211 2.92053e+21 1.94215e-05 0.0238781 -0.930729 1.89038 
0.0249375 0.0157031 2.03234 2.87426e+21 1.91139e-05 0.161381 4.15379 -2.70872 
0.0253125 0.0157031 1.87982 2.97517e+21 1.97849e-05 -0.413496 0.00746264 -1.16595 
0.0260625 0.0154219 1.97367 3.04117e+21 2.02238e-05 -0.0233519 0.889447 -1.05414 
0.0256875 0.0155156 1.96529 2.90316e+21 1.9306e-05 -0.693452 0.399046 -1.9362 
0.0256875 0.0157031 2.07208 2.81084e+21 1.86921e-05 0.0659322 -2.46714 3.06572 
0.0260625 0.0157031 2.03424 2.90886e+21 1.93439e-05 -2.23353 -3.66983 2.52765 
0.0264375 0.0156094 1.9941 2.77842e+21 1.84765e-05 0.592064 0.74913 -0.101769 
0.0268125 0.0156094 1.90986 2.92633e+21 1.94601e-05 3.34764 -0.826921 -1.6482 
0.0264375 0.0157031 1.91389 2.99535e+21 1.99191e-05 0.283019 -0.680223 -1.71779 
0.0275625 0.0150469 2.03462 2.93042e+21 1.94873e-05 2.60675 -0.99517 0.0554448 
0.0271875 0.0153281 1.93953 3.02433e+21 2.01118e-05 0.727646 -0.944322 -2.68804 
0.0290625 0.0150469 2.05203 2.78601e+21 1.85269e-05 0.291145 2.29455 -3.04549 
0.0290625 0.0151406 1.97276 2.97806e+21 1.98041e-05 0.418916 -0.265041 -3.26449 
0.0290625 0.0152344 1.96535 2.82898e+21 1.88127e-05 -0.446424 3.6449 -2.84316 
0.0286875 0.0153281 1.98856 2.918e+21 1.94047e-05 0.488172 0.0910604 1.58597 