ITEM: TIMESTEP
500000
ITEM: NUMBER OF CELLS
35726
ITEM: BOX BOUNDS oo ao pp
0 0.35
0 0.03
-0.1 0.1
ITEM: CELLS xc yc f_out[1] f_out[2] f_out[3] f_out[4] f_out[5] f_out[6] 
0.00875 0.01575 0 0 0 0 0 0 
0.00875 0.01875 0 0 0 0 0 0 
0.00875 0.02175 0 0 0 0 0 0 
0.00875 0.02475 0 0 0 0 0 0 
0.00875 0.02775 0 0 0 0 0 0 
0.02625 0.02475 0 0 0 0 0 0 
0.02625 0.02775 0 2.18488e+15 1.45295e-11 -59.6829 3.22721 2.72225 
0.00875 0.01425 0 0 0 0 0 0 
0.00875 0.01725 0 0 0 0 0 0 
0.00875 0.02025 0 0 0 0 0 0 
0.00875 0.02325 0 0 0 0 0 0 
0.00875 0.02625 0 0 0 0 0 0 
0.00875 0.02925 0 0 0 0 0 0 
0.02625 0.02325 0 0 0 0 0 0 
0.02625 0.02625 0 2.30973e+15 1.53597e-11 -22.0402 1.07594 -4.68141 
0.02625 0.02925 0 0 0 0 0 0 
0.04375 0.02325 0 0 0 0 0 0 
0.04375 0.02625 0 0 0 0 0 0 
0.04375 0.02925 0.404202 2.4874e+16 1.65412e-10 -107.716 24.789 -2.65323 
0.004375 0.013125 0 0 0 0 0 0 
0.013125 0.013125 0 0 0 0 0 0 
0.021875 0.022125 0 0 0 0 0 0 
0.030625 0.022125 0 0 0 0 0 0 
0.0021875 0.0001875 1.94893 1.28993e+22 8.57805e-05 31.1689 -1.71046 -5.24975 
0.0021875 0.0031875 0 0 0 0 0 0 
0.0021875 0.0035625 0 0 0 0 0 0 
0.0021875 0.0039375 0 0 0 0 0 0 
0.0021875 0.0043125 0 0 0 0 0 0 
0.0021875 0.0061875 0 0 0 0 0 0 
0.0021875 0.0065625 0 0 0 0 0 0 
0.0021875 0.0069375 0 0 0 0 0 0 
0.0021875 0.0073125 0 0 0 0 0 0 
0.0021875 0.0091875 0 0 0 0 0 0 
0.0021875 0.0095625 0 0 0 0 0 0 
0.0021875 0.0099375 0 0 0 0 0 0 
0.0021875 0.0103125 0 0 0 0 0 0 
0.0021875 0.0121875 0 0 0 0 0 0 
0.0021875 0.0125625 0 0 0 0 0 0 
0.0021875 0.0020625 0 0 0 0 0 0 
0.0021875 0.0024375 0 0 0 0 0 0 
0.0021875 0.0028125 0 0 0 0 0 0 
0.0021875 0.0046875 0 0 0 0 0 0 
0.0021875 0.0050625 0 0 0 0 0 0 
0.0021875 0.0054375 0 0 0 0 0 0 
0.0021875 0.0058125 0 0 0 0 0 0 
0.0021875 0.0076875 0 0 0 0 0 0 
0.0021875 0.0080625 0 0 0 0 0 0 
0.0021875 0.0084375 0 0 0 0 0 0 
0.0021875 0.0088125 0 0 0 0 0 0 
0.0021875 0.0106875 0 0 0 0 0 0 
0.0021875 0.0110625 0 0 0 0 0 0 
0.0021875 0.0114375 0 0 0 0 0 0 
0.0021875 0.0118125 0 0 0 0 0 0 
0.0109375 0.0001875 2.21923 6.0361e+21 4.01401e-05 14.2938 -2.45883 -1.39936 
0.0109375 0.0001875 2.3031 2.92928e+21 1.94797e-05 3.24553 -7.88137 -5.89459 
0.0153125 0.0001875 2.10756 2.42134e+21 1.61019e-05 -4.17233 -1.57134 -0.464215 
0.0109375 0.0005625 1.9657 5.3493e+21 3.55728e-05 4.78595 5.39929 2.10411 
0.0109375 0.0005625 1.89624 2.52096e+21 1.67644e-05 3.90543 3.85662 1.32355 
0.00546875 9.375e-05 1.82253 9.43701e+21 6.27561e-05 39.8921 3.32268 -3.17868 
0.00765625 9.375e-05 1.6664 5.5877e+21 3.71582e-05 58.2365 -3.70505 1.61855 
0.00546875 0.00028125 1.87253 9.85091e+21 6.55086e-05 45.2083 -3.66663 -1.81613 
0.00765625 0.00028125 1.8893 5.43594e+21 3.6149e-05 45.6332 2.38004 -1.01934 
0.00109375 0.00046875 0 0 0 0 0 0 
0.00328125 0.00046875 1.85951 1.25167e+22 8.3236e-05 31.0474 -2.74485 1.04033 
0.00109375 0.00065625 0 0 0 0 0 0 
0.00546875 0.00046875 1.7865 9.84263e+21 6.54535e-05 45.3936 -1.5254 -1.52931 
0.00765625 0.00046875 1.82619 5.38903e+21 3.5837e-05 41.9193 6.7504 -0.216088 
0.00765625 0.00065625 1.75239 4.8545e+21 3.22824e-05 44.3185 9.24769 0.468286 
0.00109375 0.00084375 0 0 0 0 0 0 
0.00109375 0.00103125 0 0 0 0 0 0 
0.00109375 0.00121875 0 0 0 0 0 0 
0.00109375 0.00140625 0 0 0 0 0 0 
0.00546875 0.00309375 1.96407 3.44735e+21 2.29249e-05 1.34211 7.65538 -0.882402 
0.00546875 0.00328125 1.94501 3.44514e+21 2.29102e-05 7.59348 6.68369 5.83371 
0.00546875 0.00346875 1.88685 3.27043e+21 2.17484e-05 2.65663 -6.51061 -5.63318 
0.00546875 0.00365625 1.88669 3.55065e+21 2.36118e-05 -6.10727 4.99527 0.152966 
0.0120312 0.00309375 1.90426 2.38216e+21 1.58414e-05 -0.869119 -2.75675 1.1292 
0.0120312 0.00328125 1.85283 2.33125e+21 1.55028e-05 3.18192 -0.238794 4.42135 
0.00546875 0.00384375 1.97415 2.99293e+21 1.9903e-05 -4.03073 0.204273 0.328857 
0.00546875 0.00403125 2.04007 3.23026e+21 2.14812e-05 -0.879905 6.44009 -5.29014 
0.00546875 0.00421875 1.91823 3.23819e+21 2.1534e-05 1.73787 -2.57517 5.84509 
0.00546875 0.00440625 2.09891 3.46301e+21 2.3029e-05 2.7799 3.22484 -1.60898 
0.0120312 0.00421875 2.02943 2.43338e+21 1.6182e-05 -4.18781 -2.00805 -1.60435 
0.0120312 0.00440625 2.03864 2.5338e+21 1.68498e-05 -2.39903 0.98273 3.47356 
0.00546875 0.00609375 1.86412 3.18575e+21 2.11852e-05 -4.40663 8.14268 -2.12476 
0.00546875 0.00628125 1.99539 3.21148e+21 2.13563e-05 -0.113895 -0.927652 -1.11361 
0.00546875 0.00646875 2.14237 2.98872e+21 1.9875e-05 -1.57469 4.46147 2.30849 
0.00546875 0.00665625 1.92783 3.05456e+21 2.03128e-05 -1.96774 4.68202 -0.408948 
0.0120312 0.00609375 1.99349 2.32704e+21 1.54748e-05 0.340586 -1.74463 3.38408 
0.0120312 0.00628125 2.00494 2.37204e+21 1.57741e-05 -3.60814 3.07032 -1.7179 
0.00546875 0.00684375 2.02812 3.05842e+21 2.03385e-05 1.16916 5.43548 0.913435 
0.00546875 0.00703125 1.99503 3.3234e+21 2.21006e-05 0.884394 6.0017 -1.249 
0.00546875 0.00721875 1.90963 3.23708e+21 2.15266e-05 -1.41297 5.61596 -2.95271 
0.00546875 0.00740625 2.08657 2.90164e+21 1.92959e-05 1.45381 5.79723 5.10834 
0.0120312 0.00684375 2.03589 2.40179e+21 1.59719e-05 0.558859 -4.0165 -1.00743 
0.0120312 0.00703125 2.0362 2.49113e+21 1.6566e-05 0.417835 -0.300358 -4.48093 
0.0120312 0.00721875 1.98895 2.25212e+21 1.49766e-05 3.3189 -0.681586 -0.923542 
0.0120312 0.00740625 1.9428 2.35961e+21 1.56914e-05 3.64322 4.3121 0.906289 
0.00546875 0.00909375 2.03958 3.00451e+21 1.998e-05 1.60288 -1.79945 -0.104799 
0.00546875 0.00928125 2.01149 3.01267e+21 2.00343e-05 0.317436 1.32337 1.74096 
0.00546875 0.00946875 1.94499 2.93192e+21 1.94973e-05 -3.84282 3.14917 4.07908 
0.00546875 0.00965625 2.06527 2.75089e+21 1.82934e-05 3.96274 1.29001 -0.911918 
0.0120312 0.00928125 2.06585 2.51343e+21 1.67143e-05 -0.599936 -0.0843299 0.91522 
0.00546875 0.00984375 1.93964 2.85675e+21 1.89974e-05 2.8196 -3.40081 1.19115 
0.00546875 0.0100312 2.0266 2.75557e+21 1.83245e-05 1.15715 7.05639 2.75154 
0.00546875 0.0102187 2.13016 2.86527e+21 1.90541e-05 -1.33598 1.84936 -0.119484 
0.00546875 0.0104062 1.98449 2.94032e+21 1.95531e-05 -1.70753 2.44003 1.60389 
0.00546875 0.0122813 2.04406 2.81667e+21 1.87308e-05 0.0323206 -1.95982 -1.92043 
0.00546875 0.0126563 1.9628 2.9367e+21 1.9529e-05 1.06459 0.0186292 0.0835387 
0.0229687 0.00121875 2.04493 2.27329e+21 1.51174e-05 2.53574 0.243576 0.263076 
0.0251562 0.00121875 1.93207 2.45795e+21 1.63454e-05 2.8455 3.19031 6.16372 
0.0229687 0.00140625 2.02805 2.55793e+21 1.70102e-05 0.527482 -1.99631 -1.309 
0.0251562 0.00140625 2.07556 2.44203e+21 1.62395e-05 7.15506 0.333044 -0.839857 
0.0185937 0.0216562 1.97204 2.41094e+21 1.60327e-05 -0.0993318 -0.209163 4.72892 
0.00546875 0.00178125 2.04786 3.04982e+21 2.02813e-05 -0.438254 9.57348 3.72504 
0.00546875 0.00196875 1.88401 2.84052e+21 1.88894e-05 6.67747 9.94406 -0.757016 
0.00546875 0.00215625 1.94294 3.03812e+21 2.02035e-05 -2.51872 -1.99814 -4.79591 
0.0164062 0.00196875 1.98918 2.39079e+21 1.58987e-05 2.44113 0.549296 -2.27545 
0.00546875 0.00234375 2.2432 3.30636e+21 2.19873e-05 -1.54568 -2.24421 1.06821 
0.00546875 0.00253125 2.0685 3.21925e+21 2.1408e-05 4.17694 5.19552 -1.66237 
0.00546875 0.00271875 1.90893 3.18824e+21 2.12018e-05 -2.97148 3.30314 -5.99536 
0.00546875 0.00290625 2.04155 3.20245e+21 2.12963e-05 -0.44009 0.97761 -3.3098 
0.00984375 0.00234375 2.04926 3.8631e+21 2.56896e-05 0.732475 12.0144 0.499949 
0.0120312 0.00234375 1.9538 2.10482e+21 1.39971e-05 -3.75644 -0.581571 -2.8894 
0.0120312 0.00253125 1.98667 2.28819e+21 1.52165e-05 2.02898 0.76787 5.91429 
0.00546875 0.00459375 1.98001 2.8782e+21 1.914e-05 -0.618586 8.64462 1.38498 
0.00546875 0.00478125 2.12404 3.18305e+21 2.11673e-05 -3.09973 4.04818 -0.734043 
0.00546875 0.00496875 1.83939 3.1996e+21 2.12773e-05 -2.94828 8.93446 -1.20806 
0.00546875 0.00515625 1.94365 3.36214e+21 2.23582e-05 -5.19345 7.89585 -4.02634 
0.0120312 0.00459375 1.85419 2.29995e+21 1.52947e-05 0.621941 -0.395698 6.41091 
0.0120312 0.00478125 1.91764 2.47292e+21 1.64449e-05 0.420642 -0.440998 -1.35609 
0.0120312 0.00496875 2.03269 2.50019e+21 1.66263e-05 0.569026 -2.77151 0.97521 
0.0120312 0.00515625 1.94517 2.46738e+21 1.64081e-05 -3.71422 1.5603 -3.12109 
0.00546875 0.00534375 1.98234 3.18437e+21 2.11761e-05 -3.89525 3.03066 3.40017 
0.00546875 0.00553125 1.95787 3.3003e+21 2.1947e-05 -3.97976 3.30921 0.720115 
0.00546875 0.00571875 2.08241 3.04541e+21 2.0252e-05 -3.69953 3.51261 -3.06338 
0.00546875 0.00590625 2.02601 3.12457e+21 2.07784e-05 -1.8902 5.18845 -0.136138 
0.0120312 0.00534375 1.97825 2.40323e+21 1.59815e-05 -3.1411 -0.342597 -6.5521 
0.0120312 0.00553125 2.00976 2.48786e+21 1.65443e-05 5.4279 3.63728 -3.30893 
0.0120312 0.00571875 2.01645 2.40978e+21 1.60251e-05 -3.84093 2.77893 0.13893 
0.0120312 0.00590625 1.98633 2.45502e+21 1.63259e-05 1.76023 -0.949126 -0.346124 
0.00546875 0.00759375 1.94157 3.11931e+21 2.07434e-05 5.08008 3.00196 -1.12642 
0.00546875 0.00778125 1.92103 3.12628e+21 2.07898e-05 7.54121 5.05915 -2.04524 
0.00546875 0.00796875 2.12055 3.25824e+21 2.16673e-05 -3.74675 2.42218 -4.31248 
0.00546875 0.00815625 2.08722 2.99234e+21 1.9899e-05 0.376721 4.41865 2.09807 
0.0120312 0.00759375 2.04955 2.57488e+21 1.71229e-05 2.23697 -0.0320981 1.81492 
0.0120312 0.00778125 1.96274 2.58727e+21 1.72053e-05 2.61972 -3.02804 -1.27545 
0.0120312 0.00815625 1.83341 2.40464e+21 1.59909e-05 3.24673 -2.63571 1.44145 
0.00546875 0.00834375 1.98829 2.92509e+21 1.94519e-05 4.777 1.14575 1.21605 
0.00546875 0.00853125 1.95053 2.97318e+21 1.97716e-05 3.45858 2.27882 4.52372 
0.00546875 0.00871875 2.13035 2.85884e+21 1.90113e-05 -3.74866 4.34909 0.405151 
0.00546875 0.00890625 1.94937 2.87939e+21 1.91479e-05 -0.934517 2.23004 3.0858 
0.0120312 0.00871875 2.01808 2.42818e+21 1.61474e-05 -0.677908 0.961982 1.81072 
0.00546875 0.0105937 1.99651 2.75254e+21 1.83044e-05 -2.02764 0.96201 -1.51982 
0.00546875 0.0107812 2.01025 2.77506e+21 1.84542e-05 -0.559762 -2.21456 3.1203 
0.00546875 0.0109687 2.01241 2.91335e+21 1.93738e-05 -1.14409 -1.54434 3.25828 
0.00546875 0.0111562 1.96567 2.83216e+21 1.88339e-05 -1.39059 -1.85785 2.92849 
0.00546875 0.0113437 1.98019 3.00367e+21 1.99744e-05 0.750346 -0.177961 -3.22457 
0.00546875 0.0115312 2.01594 2.79202e+21 1.85669e-05 1.20852 -0.389022 -1.18708 
0.00546875 0.0117188 2.10592 2.80189e+21 1.86325e-05 1.92247 -1.22671 1.52377 
0.00546875 0.0119063 1.98646 2.8517e+21 1.89638e-05 -1.2589 2.27423 -3.18953 
0.0360937 0.00159375 1.98381 2.37386e+21 1.57862e-05 2.44065 -2.66777 1.31252 
0.0360937 0.00178125 2.00698 2.36361e+21 1.5718e-05 5.37941 -0.869012 -0.272466 
0.0382812 0.00178125 1.98279 2.38757e+21 1.58774e-05 0.148077 0.969454 -1.81202 
0.0404687 0.00159375 1.90728 2.25699e+21 1.5009e-05 1.96686 0.753309 0.121818 
0.0470312 0.00159375 1.94835 2.21073e+21 1.47014e-05 2.12939 2.31322 2.77319 
0.0196875 0.0001875 1.99352 2.50929e+21 1.66868e-05 2.38172 1.89685 -1.68264 
0.0240625 0.0001875 2.04136 2.57655e+21 1.71341e-05 3.18283 -4.33903 -6.4518 
0.0142187 0.00121875 2.06748 2.41338e+21 1.6049e-05 3.05773 -2.19688 -2.25903 
0.0164062 0.00121875 1.99103 2.35925e+21 1.5689e-05 4.06278 -1.36865 -1.08017 
0.0142187 0.00140625 1.97711 2.51378e+21 1.67166e-05 1.8909 1.19284 0.654634 
0.0164062 0.00140625 2.02499 2.38133e+21 1.58358e-05 3.12966 -0.187332 2.16163 
0.0120312 0.00346875 2.04605 2.41828e+21 1.60815e-05 -6.79791 4.71844 -0.904205 
0.0120312 0.00365625 1.98805 2.45814e+21 1.63466e-05 2.83088 -3.44114 -4.24232 
0.0120312 0.00384375 2.12057 2.39019e+21 1.58948e-05 -2.23707 -1.22685 -1.55461 
0.0120312 0.00403125 2.08582 2.52674e+21 1.68028e-05 1.99031 2.03892 3.47597 
0.0120312 0.00646875 2.04073 2.52868e+21 1.68157e-05 0.576803 -4.00594 1.22481 
0.0120312 0.00665625 1.93523 2.31642e+21 1.54042e-05 -1.27607 1.39294 -1.01164 
0.0273437 0.00084375 1.94166 2.34546e+21 1.55973e-05 4.23699 2.72286 -1.99917 
0.0295312 0.00084375 1.95768 2.33166e+21 1.55055e-05 4.2217 3.31068 2.59387 
0.0273437 0.00103125 2.00339 2.52481e+21 1.679e-05 1.60606 -3.6858 1.75709 
0.0295312 0.00103125 2.12771 2.41193e+21 1.60393e-05 5.39638 0.0441295 -3.32397 
0.0273437 0.00121875 2.11361 2.34333e+21 1.55832e-05 1.85051 -1.14637 4.86099 
0.0295312 0.00121875 1.94705 2.48024e+21 1.64936e-05 -0.787373 -0.767725 1.26458 
0.0273437 0.00140625 1.97422 2.4172e+21 1.60744e-05 0.264879 1.21263 1.52842 
0.0295312 0.00140625 2.02172 2.45859e+21 1.63496e-05 3.17583 0.253818 0.664924 
0.0339062 0.00140625 2.00506 2.5938e+21 1.72488e-05 7.30953 1.79077 0.631702 
0.00109375 0.00159375 0 0 0 0 0 0 
0.00109375 0.00178125 0 0 0 0 0 0 
0.00328125 0.00178125 0 0 0 0 0 0 
0.0120312 0.00271875 1.95986 2.43893e+21 1.62189e-05 -5.50767 1.64149 4.24263 
0.0120312 0.00290625 1.98384 2.33655e+21 1.55381e-05 0.916096 2.426 2.413 
0.0185937 0.00159375 1.98088 2.4956e+21 1.65957e-05 0.674643 -1.1181 -0.494486 
0.0185937 0.00178125 1.89627 2.49214e+21 1.65727e-05 1.92838 0.760436 -1.03639 
0.0492187 0.00159375 1.96741 2.51264e+21 1.67091e-05 0.807453 -3.40252 -1.22176 
0.00273437 0.000609375 1.87827 1.48581e+22 9.88063e-05 20.9929 12.2626 4.87435 
0.00382812 0.000609375 1.82704 1.26846e+22 8.43523e-05 28.4337 1.72822 3.08079 
0.00273437 0.000703125 1.96501 1.16847e+22 7.77032e-05 42.4753 6.84835 0.193573 
0.00382812 0.000703125 2.07527 1.32229e+22 8.7932e-05 28.5436 -3.26345 3.76666 
0.00492187 0.000609375 1.78746 1.0112e+22 6.72447e-05 41.6525 3.85229 0.0287323 
0.00601562 0.000609375 1.77589 9.34786e+21 6.21633e-05 55.1888 6.13783 0.70377 
0.00492187 0.000703125 1.93706 1.03752e+22 6.8995e-05 40.8176 -0.542371 -1.17 
0.00601562 0.000703125 1.71589 8.94032e+21 5.94532e-05 44.7426 5.72065 2.87984 
0.00273437 0.000796875 2.00738 1.34662e+22 8.95499e-05 27.2723 0.628597 -1.98708 
0.00382812 0.000796875 1.95283 1.38293e+22 9.19646e-05 29.8818 -2.81807 1.92805 
0.00273437 0.000890625 1.86327 1.26134e+22 8.38794e-05 29.4944 -1.61979 -1.7361 
0.00382812 0.000890625 2.04635 1.30009e+22 8.64562e-05 30.5388 -4.70384 2.41836 
0.00273437 0.000984375 2.10946 1.49891e+22 9.96776e-05 23.2834 -3.31772 -8.96759 
0.00382812 0.000984375 1.96547 1.29611e+22 8.61913e-05 28.7398 -0.590202 1.13668 
0.00273437 0.00107813 1.94351 1.74182e+22 0.000115831 26.5735 -2.09575 6.35253 
0.00382812 0.00107813 1.91914 1.34033e+22 8.91319e-05 23.8974 -2.71424 0.0187248 
0.00492187 0.000796875 1.97147 1.05959e+22 7.0463e-05 39.0298 -1.67706 0.758403 
0.00601562 0.000796875 1.80571 8.45338e+21 5.6215e-05 46.8844 -0.401641 -1.8452 
0.00492187 0.000890625 1.81345 1.10142e+22 7.32444e-05 40.2021 -2.18758 -1.79612 
0.00601562 0.000890625 1.79428 8.40007e+21 5.58605e-05 43.7521 1.85832 3.56143 
0.00492187 0.000984375 1.90235 1.05329e+22 7.00436e-05 35.3037 -4.57745 0.413273 
0.00601562 0.000984375 1.74464 8.05733e+21 5.35812e-05 48.1175 6.57206 4.89295 
0.00492187 0.00107813 1.90047 1.1143e+22 7.4101e-05 32.3883 0.0939146 0.547846 
0.00601562 0.00107813 1.7392 8.20609e+21 5.45705e-05 39.3145 1.32498 -0.15406 
0.00273437 0.00135937 2.01981 1.62813e+22 0.00010827 23.8139 -1.1587 8.93961 
0.00273437 0.00145312 2.11804 1.7077e+22 0.000113562 17.5418 -8.61706 9.28826 
0.00601562 0.00117188 1.8703 8.95357e+21 5.95412e-05 38.2099 6.66588 2.07434 
0.00492187 0.00126563 1.87854 1.14912e+22 7.64165e-05 28.9625 1.74754 -2.49094 
0.00601562 0.00126563 1.83854 8.15544e+21 5.42337e-05 37.3953 2.42964 -1.63818 
0.00601562 0.00135937 1.94885 8.36942e+21 5.56567e-05 29.9187 -0.627563 1.83429 
0.00601562 0.00145312 1.95954 8.51307e+21 5.66119e-05 30.5344 -2.12769 0.766763 
0.00710937 0.00323438 1.89014 3.40241e+21 2.2626e-05 -2.04836 12.2487 1.95304 
0.00820312 0.00323438 1.99071 3.4312e+21 2.28175e-05 1.03833 19.8611 -1.40318 
0.00710937 0.00332813 1.89587 3.20863e+21 2.13374e-05 -2.03528 7.98696 1.56358 
0.00820312 0.00332813 1.94806 3.5724e+21 2.37565e-05 0.292322 11.893 -3.73238 
0.00710937 0.00360937 1.94369 3.11772e+21 2.07328e-05 -7.18089 7.65462 2.3237 
0.00820312 0.00360937 1.94542 3.34133e+21 2.22199e-05 -1.54905 16.6669 -3.78108 
0.00710937 0.00370312 2.00524 3.05555e+21 2.03194e-05 -0.10908 5.63093 4.69514 
0.00820312 0.00370312 1.98688 3.36153e+21 2.23542e-05 -1.17017 12.3026 0.519457 
0.00710937 0.00379687 2.07716 3.51972e+21 2.34061e-05 -2.11736 8.00131 -1.27987 
0.00820312 0.00379687 1.90312 3.50336e+21 2.32974e-05 0.283783 10.759 0.698326 
0.00710937 0.00389062 2.0236 3.26336e+21 2.17013e-05 -1.89348 9.12992 -0.557411 
0.00820312 0.00389062 1.95799 3.49475e+21 2.32401e-05 -1.30733 14.6179 -3.89779 
0.00710937 0.00398438 2.00123 3.18268e+21 2.11648e-05 -4.37617 10.1497 -0.232562 
0.00710937 0.00407813 1.9405 3.47108e+21 2.30827e-05 -1.21832 9.79489 3.09173 
0.00820312 0.00407813 1.93957 3.15518e+21 2.0982e-05 -3.09861 14.6208 2.31128 
0.00820312 0.00417188 1.93899 3.2517e+21 2.16238e-05 -1.70589 9.66628 -0.411436 
0.00710937 0.00426563 2.05124 3.19479e+21 2.12454e-05 -3.81671 10.7378 2.6013 
0.00820312 0.00426563 1.98432 3.39856e+21 2.26004e-05 1.03707 11.4495 3.03668 
0.00710937 0.00435938 1.92694 3.30055e+21 2.19487e-05 -1.14447 9.39349 3.4801 
0.0136719 0.00417188 2.00542 2.4704e+21 1.64282e-05 1.63577 1.40083 -0.646112 
0.0147656 0.00417188 2.01482 2.44436e+21 1.6255e-05 0.00135337 2.59715 0.825744 
0.0136719 0.00426563 1.95476 2.52891e+21 1.68172e-05 -3.70846 -0.937544 0.998791 
0.0147656 0.00426563 2.12906 2.44886e+21 1.62849e-05 -0.892467 4.16669 -0.850979 
0.0169531 0.00670313 1.98483 2.46606e+21 1.63993e-05 2.78435 -3.15818 1.45656 
0.0103906 0.00679687 0 0 0 0 0 0 
0.00929687 0.00689062 1.98374 3.13334e+21 2.08367e-05 -0.429235 3.85978 2.81099 
0.0103906 0.00689062 0 0 0 0 0 0 
0.0103906 0.00698437 0 0 0 0 0 0 
0.00929687 0.00707812 2.00138 3.05649e+21 2.03256e-05 -4.48389 6.0685 0.277207 
0.0103906 0.00707812 0 0 0 0 0 0 
0.0147656 0.00689062 2.03785 2.55438e+21 1.69866e-05 -0.618807 -2.02778 3.34261 
0.0169531 0.00707812 2.00167 2.57004e+21 1.70908e-05 3.33722 -0.818339 -0.196097 
0.0103906 0.00923437 0 0 0 0 0 0 
0.0103906 0.00932812 0 0 0 0 0 0 
0.0103906 0.00942187 0 0 0 0 0 0 
0.0103906 0.00951562 2.00745 2.42011e+21 1.60937e-05 3.47252 0.455352 2.7997 
0.0114844 0.0127031 2.01238 2.66278e+21 1.77075e-05 0.743976 1.17208 -0.523743 
0.0136719 0.0127031 2.0339 2.53161e+21 1.68352e-05 4.28454 -0.00963113 -1.1668 
0.0147656 0.0127031 1.90055 2.47127e+21 1.64339e-05 4.22818 1.9159 -2.15306 
0.0158594 0.0127031 2.00523 2.47652e+21 1.64688e-05 -2.19786 2.08344 1.05674 
0.0169531 0.0127031 1.95225 2.27451e+21 1.51255e-05 3.16201 -2.45739 -5.26125 
0.0333594 0.00360937 1.94105 2.36947e+21 1.57569e-05 4.91985 3.80937 2.53714 
0.0344531 0.00360937 1.97361 2.45547e+21 1.63289e-05 -5.48352 3.43668 5.2838 
0.0333594 0.00370312 1.97957 2.51486e+21 1.67238e-05 1.32233 0.914532 -0.467384 
0.0344531 0.00370312 1.94765 2.69509e+21 1.79224e-05 -0.320249 -2.04567 1.15339 
0.0202344 0.00398438 1.98109 2.47758e+21 1.64759e-05 0.295821 0.602366 -1.74625 
0.0213281 0.00398438 1.98609 2.50874e+21 1.66832e-05 1.40986 -0.968295 4.40037 
0.0202344 0.00407813 1.99598 2.58428e+21 1.71855e-05 3.02131 -0.698803 0.733829 
0.0213281 0.00407813 1.86741 2.35212e+21 1.56416e-05 0.821575 1.11658 1.8507 
0.0180469 0.00435938 1.98251 2.43536e+21 1.61951e-05 3.47257 -1.87591 0.852583 
0.0191406 0.00435938 1.93306 2.56709e+21 1.70712e-05 5.36861 -2.48502 0.631631 
0.0180469 0.00445313 2.16788 2.43288e+21 1.61787e-05 -1.05917 0.358225 3.42825 
0.0191406 0.00445313 1.90664 2.41546e+21 1.60628e-05 4.99507 -6.06301 -0.990175 
0.0333594 0.00398438 1.90178 2.44252e+21 1.62428e-05 -4.74605 0.659921 0.585558 
0.0344531 0.00398438 1.88564 2.53212e+21 1.68386e-05 3.01229 -1.74372 1.04316 
0.0333594 0.00407813 2.01891 2.36353e+21 1.57175e-05 3.08055 2.9151 0.515259 
0.0344531 0.00407813 1.96956 2.35973e+21 1.56922e-05 3.3472 1.73537 1.59055 
0.0267969 0.00435938 2.0323 2.54217e+21 1.69054e-05 -1.17683 0.442639 -1.4225 
0.0278906 0.00435938 1.98828 2.39263e+21 1.5911e-05 0.966995 0.0920829 -2.28092 
0.0267969 0.00445313 1.94243 2.44683e+21 1.62714e-05 0.904632 -2.43294 -1.78778 
0.0278906 0.00445313 2.0405 2.43637e+21 1.62019e-05 0.518545 2.88998 3.27065 
0.0333594 0.00435938 1.94601 2.59914e+21 1.72843e-05 1.18862 -1.52737 0.877595 
0.0344531 0.00435938 2.05883 2.38195e+21 1.584e-05 4.4948 -1.28027 3.73782 
0.0333594 0.00445313 1.95717 2.41197e+21 1.60396e-05 0.525585 2.44282 -3.34377 
0.0344531 0.00445313 2.00187 2.34575e+21 1.55992e-05 1.48159 -2.79466 0.206661 
0.0180469 0.00623438 2.0388 2.37263e+21 1.5778e-05 0.634795 0.914088 2.31445 
0.0191406 0.00623438 2.0118 2.47471e+21 1.64568e-05 1.21281 -1.11048 -1.66517 
0.0180469 0.00632813 2.02398 2.41107e+21 1.60336e-05 0.829647 -2.18005 -1.51557 
0.0202344 0.00623438 2.00999 2.55189e+21 1.69701e-05 2.7113 -0.660152 -0.19818 
0.0257031 0.00604688 2.0613 2.25112e+21 1.497e-05 2.77688 3.31336 -3.60518 
0.0246094 0.00614063 1.99466 2.57316e+21 1.71115e-05 4.16825 0.347709 0.831234 
0.0180469 0.00642188 2.00734 2.6369e+21 1.75354e-05 0.595236 -0.127107 -2.835 
0.0202344 0.00642188 2.01703 2.33961e+21 1.55584e-05 2.56227 -0.170955 -0.9526 
0.0202344 0.00651563 2.04608 2.65851e+21 1.76791e-05 1.65743 0.199842 0.974155 
0.0213281 0.00651563 1.95342 2.47509e+21 1.64593e-05 2.16571 -1.49751 -1.38943 
0.0202344 0.00670313 1.96052 2.48227e+21 1.65071e-05 2.96969 -3.54077 0.645686 
0.0224219 0.00651563 1.97707 2.5132e+21 1.67128e-05 2.44159 -3.16922 2.89712 
0.0235156 0.00651563 1.98704 2.49653e+21 1.66019e-05 2.11457 2.89247 0.332999 
0.0257031 0.00642188 2.00467 2.54022e+21 1.68925e-05 2.12691 -0.33973 -0.627662 
0.0246094 0.00651563 2.04405 2.45365e+21 1.63167e-05 1.90109 -0.164661 -1.62259 
0.0224219 0.00670313 2.03902 2.40354e+21 1.59835e-05 0.23844 3.02186 1.47732 
0.0246094 0.00660938 1.92708 2.44937e+21 1.62883e-05 -2.28454 -2.34783 -0.887495 
0.0257031 0.00660938 1.94443 2.30377e+21 1.53201e-05 5.0485 0.267114 0.177842 
0.0267969 0.00604688 2.0549 2.54118e+21 1.68988e-05 0.0596961 -1.5089 0.842584 
0.0278906 0.00604688 2.03563 2.46931e+21 1.64209e-05 3.20466 -0.554429 2.1969 
0.0278906 0.00614063 1.966 2.40127e+21 1.59685e-05 5.65324 -1.91598 1.14974 
0.0289844 0.00604688 2.08951 2.54374e+21 1.69159e-05 -3.16517 3.74756 -1.51115 
0.0300781 0.00604688 2.06125 2.4462e+21 1.62673e-05 1.39429 2.02362 4.1057 
0.0278906 0.00623438 1.98087 2.35023e+21 1.5629e-05 2.31902 2.74621 3.64779 
0.0267969 0.00632813 2.03904 2.41597e+21 1.60662e-05 -2.0901 -0.00739828 -0.385602 
0.0311719 0.00623438 1.99768 2.67886e+21 1.78144e-05 6.67343 -1.35101 0.2254 
0.0311719 0.00632813 2.00927 2.55087e+21 1.69633e-05 -0.436347 -0.418713 -1.03427 
0.0322656 0.00632813 2.04369 2.46503e+21 1.63924e-05 2.05767 -3.94665 1.49273 
0.0333594 0.00623438 1.93059 2.47471e+21 1.64568e-05 3.54119 1.27863 -3.48144 
0.0344531 0.00623438 2.12013 2.36268e+21 1.57118e-05 -2.07082 1.8644 0.899227 
0.0333594 0.00632813 2.02123 2.31541e+21 1.53975e-05 0.333074 1.0441 0.41683 
0.0267969 0.00642188 2.00485 2.32753e+21 1.54781e-05 0.869848 0.364427 2.10636 
0.0300781 0.00642188 2.02354 2.58614e+21 1.71979e-05 2.91807 2.73011 3.64043 
0.0267969 0.00660938 1.99637 2.56679e+21 1.70692e-05 -2.36342 2.939 0.33046 
0.0267969 0.00670313 2.07346 2.47995e+21 1.64917e-05 1.17611 -2.58948 0.662738 
0.0289844 0.00660938 1.94071 2.49164e+21 1.65694e-05 2.04298 2.36087 2.32609 
0.0300781 0.00660938 1.9988 2.51513e+21 1.67256e-05 4.78573 0.219102 2.69959 
0.0300781 0.00670313 1.98791 2.51468e+21 1.67226e-05 3.34974 -0.315485 3.35992 
0.0344531 0.00642188 1.9441 2.45805e+21 1.6346e-05 -2.43272 -2.20186 -1.53403 
0.0344531 0.00651563 1.95812 2.41315e+21 1.60474e-05 2.12813 -1.03139 0.861722 
0.0322656 0.00670313 1.97687 2.33407e+21 1.55216e-05 2.20142 4.24661 -2.99529 
0.0333594 0.00660938 1.98418 2.47755e+21 1.64757e-05 1.06709 0.129929 0.88264 
0.0344531 0.00660938 1.93642 2.37892e+21 1.58198e-05 4.96964 -1.81983 1.44746 
0.0191406 0.00679687 2.05217 2.57363e+21 1.71146e-05 1.5281 0.770794 -4.56688 
0.0202344 0.00679687 1.9908 2.44118e+21 1.62338e-05 5.2338 1.70553 3.30724 
0.0202344 0.00698437 2.08872 2.36009e+21 1.56946e-05 3.00074 -0.0828433 -0.264295 
0.0202344 0.00707812 1.91342 2.51303e+21 1.67116e-05 -0.828556 1.8693 0.652605 
0.0246094 0.00689062 1.9611 2.54086e+21 1.68967e-05 -0.9838 -0.045994 -0.083809 
0.0257031 0.00689062 1.9888 2.50032e+21 1.66271e-05 4.67635 2.27155 0.842088 
0.0202344 0.00717187 1.94368 2.346e+21 1.56009e-05 1.30638 -2.24042 -0.386257 
0.0278906 0.00689062 1.97537 2.53861e+21 1.68818e-05 1.04637 1.28801 -3.69905 
0.0289844 0.00689062 2.1563 2.42148e+21 1.61028e-05 1.4032 -2.89503 -1.65471 
0.0300781 0.00698437 1.98097 2.42675e+21 1.61379e-05 2.01649 2.75569 -0.375858 
0.0289844 0.00707812 1.96524 2.35514e+21 1.56617e-05 3.75874 -1.5235 -0.333332 
0.0311719 0.00679687 1.89545 2.45259e+21 1.63098e-05 3.60951 1.31574 1.72367 
0.0311719 0.00698437 1.93855 2.41564e+21 1.6064e-05 3.05937 1.05827 2.49282 
0.0278906 0.00745312 1.97605 2.51987e+21 1.67571e-05 3.24216 2.05934 -1.53491 
0.0322656 0.00717187 1.94425 2.42174e+21 1.61046e-05 3.96924 -1.08902 -3.25894 
0.0333594 0.00726562 1.94354 2.33068e+21 1.5499e-05 1.15761 2.74532 0.985161 
0.0322656 0.00745312 2.0531 2.40116e+21 1.59677e-05 0.0059776 -0.253503 -0.336479 
0.0180469 0.0157969 0 0 0 0 0 0 
0.0180469 0.0158906 0 0 0 0 0 0 
0.0180469 0.0186094 0 0 0 0 0 0 
0.0180469 0.0187031 0 0 0 0 0 0 
0.0180469 0.0191719 0 0 0 0 0 0 
0.0180469 0.0192656 0 0 0 0 0 0 
0.0180469 0.0193594 0 0 0 0 0 0 
0.0180469 0.0194531 0 0 0 0 0 0 
0.0180469 0.0210469 0 0 0 0 0 0 
0.0180469 0.0211406 0 0 0 0 0 0 
0.0180469 0.0212344 0 0 0 0 0 0 
0.0180469 0.0213281 0 0 0 0 0 0 
0.00601562 0.00154688 1.91553 7.76292e+21 5.16234e-05 21.3249 2.2092 2.56367 
0.00492187 0.00164063 0 0 0 0 0 0 
0.00601562 0.00164063 1.97811 3.35993e+21 2.23435e-05 26.8777 37.8285 4.55859 
0.00710937 0.00229688 1.90764 3.53423e+21 2.35026e-05 0.409371 12.7423 0.0734572 
0.00820312 0.00229688 2.02977 3.71669e+21 2.4716e-05 4.42232 20.658 -2.19471 
0.00710937 0.00239063 1.83863 3.54497e+21 2.3574e-05 -1.75991 11.7272 6.07475 
0.00820312 0.00239063 1.93726 3.57094e+21 2.37467e-05 -4.64016 19.4671 2.28858 
0.00710937 0.00248438 1.99562 3.68609e+21 2.45125e-05 -2.78331 11.9575 0.0470701 
0.00820312 0.00248438 1.95447 3.84228e+21 2.55511e-05 2.05436 17.0321 0.188492 
0.00710937 0.00257813 1.92776 3.58215e+21 2.38213e-05 2.07586 8.21222 -0.741852 
0.00820312 0.00257813 1.93645 3.54603e+21 2.35811e-05 3.48179 18.448 -2.2972 
0.00710937 0.00285937 1.86847 3.37637e+21 2.24529e-05 -1.91367 10.3443 1.19457 
0.00820312 0.00285937 1.94517 3.45779e+21 2.29943e-05 1.79412 22.0432 -3.81267 
0.00710937 0.00295313 2.01844 3.50044e+21 2.3278e-05 -5.28344 9.43732 -1.88995 
0.00820312 0.00295313 1.95076 3.75273e+21 2.49556e-05 -2.89271 14.7788 0.873835 
0.00710937 0.00454687 1.92105 3.35902e+21 2.23375e-05 -0.475782 7.75695 1.39544 
0.00710937 0.00464062 1.98503 3.42829e+21 2.27982e-05 -0.353853 8.02979 1.12999 
0.00820312 0.00473437 1.97011 3.3309e+21 2.21505e-05 -0.818173 12.3598 -2.49078 
0.00710937 0.00482812 1.99794 3.22765e+21 2.14639e-05 1.62678 7.93719 1.6327 
0.00820312 0.00482812 2.04641 3.15371e+21 2.09721e-05 -0.305795 11.9454 2.61895 
0.00820312 0.00492187 2.03325 3.39638e+21 2.25859e-05 1.13534 10.5776 -2.30082 
0.00710937 0.00520312 1.99548 3.19489e+21 2.1246e-05 -2.95657 6.02055 1.19726 
0.0136719 0.00510937 1.84516 2.42115e+21 1.61006e-05 1.04722 3.46487 -1.01427 
0.0147656 0.00510937 1.96051 2.4576e+21 1.63431e-05 0.594027 0.090335 -0.745176 
0.0136719 0.00520312 2.00587 2.4342e+21 1.61874e-05 2.0467 -0.0276698 0.713903 
0.0147656 0.00520312 1.99766 2.57142e+21 1.71e-05 2.82568 1.19911 0.251738 
0.0158594 0.00510937 2.01128 2.409e+21 1.60198e-05 2.71509 -1.59815 -0.935687 
0.0169531 0.00510937 2.00665 2.4819e+21 1.65047e-05 -0.0349158 0.514403 0.740785 
0.0158594 0.00520312 2.08195 2.46105e+21 1.6366e-05 0.588262 2.43715 -0.60217 
0.0169531 0.00520312 1.89276 2.63407e+21 1.75166e-05 1.13198 -0.937427 -1.6472 
0.00710937 0.00557812 2.06046 3.10254e+21 2.06319e-05 1.47463 6.61603 -1.88984 
0.00710937 0.00567187 2.01763 3.17988e+21 2.11462e-05 -0.233227 9.82139 -2.07242 
0.00710937 0.00576562 2.08724 3.21701e+21 2.13931e-05 0.973976 6.05894 1.0565 
0.00820312 0.00585938 1.97057 3.16024e+21 2.10156e-05 2.89288 8.70701 7.40083 
0.0158594 0.00529687 2.14794 2.55522e+21 1.69922e-05 -0.632 0.578172 -0.00804175 
0.0169531 0.00529687 1.89511 2.58159e+21 1.71676e-05 0.965157 2.93768 1.02877 
0.0158594 0.00539062 1.94062 2.5079e+21 1.66775e-05 3.36981 1.02391 -1.48509 
0.0169531 0.00539062 1.96671 2.57124e+21 1.70988e-05 2.15519 1.86609 2.0238 
0.0169531 0.00548437 2.06967 2.28956e+21 1.52256e-05 1.02768 -2.58344 1.93564 
0.0158594 0.00557812 1.98474 2.49594e+21 1.6598e-05 1.21876 -1.33289 3.00604 
0.0169531 0.00557812 2.04658 2.52655e+21 1.68016e-05 0.885677 0.385543 1.92783 
0.0158594 0.00567187 1.99277 2.48479e+21 1.65239e-05 1.98469 -0.408817 0.818022 
0.0158594 0.00576562 1.96166 2.47939e+21 1.64879e-05 1.08015 -2.88421 0.621136 
0.0147656 0.00585938 1.94195 2.38144e+21 1.58366e-05 0.627541 -1.69364 -1.71998 
0.0136719 0.00595313 1.92983 2.41172e+21 1.6038e-05 1.0764 -4.96339 0.503425 
0.0147656 0.00595313 1.96541 2.42997e+21 1.61593e-05 0.74559 0.490072 -0.626614 
0.0103906 0.00773437 0 0 0 0 0 0 
0.0103906 0.00782813 0 0 0 0 0 0 
0.0136719 0.00782813 1.97699 2.49829e+21 1.66137e-05 1.04887 -1.92641 -0.452143 
0.0136719 0.00792188 1.93719 2.34725e+21 1.56092e-05 1.19462 -3.45536 2.90735 
0.0202344 0.00510937 2.08227 2.50621e+21 1.66663e-05 2.56271 -1.39008 0.118613 
0.0213281 0.00510937 2.06586 2.43634e+21 1.62016e-05 2.54488 -0.542144 1.37939 
0.0202344 0.00520312 1.9388 2.34173e+21 1.55725e-05 6.59728 -0.259019 2.35716 
0.0224219 0.00492187 1.97949 2.49446e+21 1.65882e-05 -0.247644 1.86932 -0.590028 
0.0235156 0.00492187 1.88793 2.41247e+21 1.60429e-05 1.92274 0.818727 0.0685362 
0.0224219 0.00501562 2.03012 2.40761e+21 1.60106e-05 2.51071 2.0563 -3.23757 
0.0267969 0.00454687 2.09318 2.39979e+21 1.59586e-05 0.312903 1.30467 -1.09711 
0.0278906 0.00454687 2.01087 2.47489e+21 1.6458e-05 7.35884 -1.26398 2.30971 
0.0267969 0.00464062 1.97142 2.43158e+21 1.617e-05 3.07353 0.0927398 -0.211602 