ITEM: TIMESTEP
500000
ITEM: NUMBER OF CELLS
46754
ITEM: BOX BOUNDS oo ao pp
0 0.12
0 0.03
-0.1 0.1
ITEM: CELLS xc yc f_out[1] f_out[2] f_out[3] f_out[4] f_out[5] f_out[6] 
0.003 0.00375 0 0 0 0 0 0 
0.003 0.00525 0 0 0 0 0 0 
0.003 0.00675 0 0 0 0 0 0 
0.003 0.00825 0 0 0 0 0 0 
0.003 0.00975 0 0 0 0 0 0 
0.003 0.01125 0 0 0 0 0 0 
0.003 0.01275 0 0 0 0 0 0 
0.003 0.01425 0 0 0 0 0 0 
0.003 0.01575 0 0 0 0 0 0 
0.003 0.01725 0 0 0 0 0 0 
0.003 0.01875 0 0 0 0 0 0 
0.003 0.02025 0 0 0 0 0 0 
0.003 0.02175 0 0 0 0 0 0 
0.003 0.02325 0 0 0 0 0 0 
0.027 0.02325 0 0 0 0 0 0 
0.003 0.02475 0 0 0 0 0 0 
0.027 0.02475 0 0 0 0 0 0 
0.003 0.02625 0 0 0 0 0 0 
0.027 0.02625 0 0 0 0 0 0 
0.003 0.02775 0 0 0 0 0 0 
0.027 0.02775 0 0 0 0 0 0 
0.003 0.02925 0 0 0 0 0 0 
0.027 0.02925 0 0 0 0 0 0 
0.009 0.01425 0 0 0 0 0 0 
0.009 0.01575 0 0 0 0 0 0 
0.009 0.01725 0 0 0 0 0 0 
0.009 0.01875 0 0 0 0 0 0 
0.009 0.02025 0 0 0 0 0 0 
0.009 0.02175 0 0 0 0 0 0 
0.009 0.02325 0 0 0 0 0 0 
0.009 0.02475 0 0 0 0 0 0 
0.009 0.02625 0 0 0 0 0 0 
0.009 0.02775 0 0 0 0 0 0 
0.009 0.02925 0 0 0 0 0 0 
0.015 0.01425 0 0 0 0 0 0 
0.015 0.01575 0 0 0 0 0 0 
0.015 0.01725 0 0 0 0 0 0 
0.015 0.01875 0 0 0 0 0 0 
0.015 0.02025 0 0 0 0 0 0 
0.015 0.02175 0 0 0 0 0 0 
0.015 0.02325 0 0 0 0 0 0 
0.015 0.02475 0 0 0 0 0 0 
0.015 0.02625 0 0 0 0 0 0 
0.015 0.02775 0 0 0 0 0 0 
0.015 0.02925 -7.09506e-17 6.04577e+15 4.02044e-11 -31.2591 2.25078 -3.61059 
0.021 0.02325 0 0 0 0 0 0 
0.021 0.02475 0 0 0 0 0 0 
0.021 0.02625 0 0 0 0 0 0 
0.021 0.02775 0 0 0 0 0 0 
0.021 0.02925 0 0 0 0 0 0 
0.0015 0.000375 0 0 0 0 0 0 
0.0015 0.001125 0 0 0 0 0 0 
0.0015 0.001875 0 0 0 0 0 0 
0.0015 0.002625 0 0 0 0 0 0 
0.0045 0.002625 0 0 0 0 0 0 
0.0255 0.022125 0 0 0 0 0 0 
0.0285 0.022125 0 0 0 0 0 0 
0.0105 0.000375 2.00875 5.90441e+21 3.92644e-05 5.84425 4.43243 0.110116 
0.0075 0.013125 0 0 0 0 0 0 
0.0105 0.013125 0 0 0 0 0 0 
0.0135 0.013125 0 0 0 0 0 0 
0.0165 0.013125 0 0 0 0 0 0 
0.0195 0.022125 0 0 0 0 0 0 
0.0225 0.022125 0 0 0 0 0 0 
0.00375 0.0001875 1.87744 1.22437e+22 8.14205e-05 35.6891 0.676862 0.233631 
0.00525 0.0001875 1.84425 1.05028e+22 6.98437e-05 48.7779 -0.311245 -0.766042 
0.00375 0.0020625 0 0 0 0 0 0 
0.00525 0.0020625 0 0 0 0 0 0 
0.00675 0.0001875 1.76335 7.09242e+21 4.71646e-05 58.5 -2.26342 0.469816 
0.00825 0.0001875 2.15173 4.82888e+21 3.2112e-05 26.3391 -1.08982 2.81449 
0.01125 0.0024375 0 0 0 0 0 0 
0.01125 0.0028125 0 0 0 0 0 0 
0.01125 0.0031875 0 0 0 0 0 0 
0.01125 0.0035625 0 0 0 0 0 0 
0.01125 0.0039375 0 0 0 0 0 0 
0.01125 0.0043125 0 0 0 0 0 0 
0.01125 0.0046875 0 0 0 0 0 0 
0.01125 0.0050625 0 0 0 0 0 0 
0.01125 0.0054375 0 0 0 0 0 0 
0.01125 0.0058125 0 0 0 0 0 0 
0.01125 0.0061875 0 0 0 0 0 0 
0.01125 0.0065625 0 0 0 0 0 0 
0.01125 0.0069375 0 0 0 0 0 0 
0.01125 0.0073125 0 0 0 0 0 0 
0.01125 0.0076875 0 0 0 0 0 0 
0.01125 0.0080625 0 0 0 0 0 0 
0.01125 0.0084375 0 0 0 0 0 0 
0.01125 0.0088125 0 0 0 0 0 0 
0.01125 0.0091875 0 0 0 0 0 0 
0.02625 0.0009375 1.96127 2.66796e+21 1.77419e-05 1.33367 -1.23706 -1.70356 
0.004875 0.00046875 1.8356 1.1034e+22 7.3376e-05 40.276 -1.9613 1.6024 
0.005625 0.00046875 1.70836 9.15073e+21 6.08523e-05 51.2085 8.28843 -0.584589 
0.004875 0.00065625 1.92015 1.09512e+22 7.28255e-05 37.7449 4.22084 -1.39521 
0.005625 0.00065625 1.86582 9.33008e+21 6.20451e-05 49.0049 -1.6934 -2.83626 
0.003375 0.00084375 1.89897 1.44196e+22 9.58901e-05 28.0648 -3.79576 0.637359 
0.004125 0.00084375 1.80683 1.25551e+22 8.34913e-05 34.8916 0.22277 0.525028 
0.003375 0.00103125 1.8715 1.40217e+22 9.3244e-05 26.1224 -3.48649 2.12081 
0.004875 0.00084375 1.77585 1.05565e+22 7.02005e-05 37.2997 -0.0980833 0.308696 
0.005625 0.00084375 1.78821 9.56386e+21 6.35997e-05 41.9216 -0.430957 -0.818128 
0.005625 0.00103125 1.78383 9.17487e+21 6.10129e-05 41.1778 2.45565 -0.147389 
0.005625 0.00140625 1.98616 8.53907e+21 5.67848e-05 26.3355 0.421405 0.790005 
0.028875 0.00384375 1.93081 2.74422e+21 1.8249e-05 1.6259 7.48907 -0.982374 
0.029625 0.00384375 1.98081 2.85611e+21 1.89931e-05 1.39524 -1.57391 0.664778 
0.029625 0.00403125 2.0236 2.8496e+21 1.89498e-05 2.08741 1.23934 -0.267859 
0.028125 0.00421875 1.9698 2.60223e+21 1.73048e-05 2.72082 1.37605 -1.25395 
0.028125 0.00440625 1.94763 2.79202e+21 1.85669e-05 0.437292 3.79069 -1.85542 
0.024375 0.0216562 1.97399 2.62153e+21 1.74331e-05 -0.326923 -0.0109602 -1.54888 
0.025125 0.0216562 1.94282 2.67875e+21 1.78137e-05 2.29217 4.16376 1.66575 
0.025875 0.0216562 1.99453 2.77174e+21 1.8432e-05 -2.2133 -0.747994 1.02688 
0.026625 0.0216562 2.0279 2.79677e+21 1.85985e-05 -0.467953 0.0645605 -0.529072 
0.027375 0.0216562 1.94486 2.63226e+21 1.75045e-05 4.76108 -0.967562 1.91605 
0.028125 0.0216562 1.9796 2.78962e+21 1.8551e-05 0.428474 0.750932 -5.60481 
0.028875 0.0216562 1.97472 2.58934e+21 1.72191e-05 3.03407 -1.25406 -2.56949 
0.029625 0.0216562 2.06896 2.83254e+21 1.88364e-05 0.516512 -1.03391 -0.821612 
0.006375 0.00084375 1.67901 6.96163e+21 4.62949e-05 55.4242 5.5785 -0.0446746 
0.007125 0.00084375 1.62059 5.63369e+21 3.74641e-05 47.7816 8.58529 3.30402 
0.006375 0.00103125 1.74897 6.69458e+21 4.4519e-05 46.0933 6.19003 1.97871 
0.007125 0.00103125 1.6547 5.32274e+21 3.53962e-05 51.8561 16.9648 0.593273 
0.006375 0.00121875 1.91017 6.12896e+21 4.07576e-05 50.6659 10.3147 1.50507 
0.007125 0.00121875 1.79428 4.8846e+21 3.24826e-05 44.8257 15.0804 -3.52719 
0.006375 0.00140625 1.91883 5.95562e+21 3.96049e-05 39.3468 4.58774 0.617788 
0.007125 0.00140625 1.91244 4.66792e+21 3.10416e-05 37.2439 15.2108 -0.938264 
0.007875 0.00121875 1.88701 4.81031e+21 3.19885e-05 27.2519 22.3825 -3.61732 
0.008625 0.00121875 1.85074 4.82888e+21 3.2112e-05 13.975 17.3106 6.05624 
0.007875 0.00140625 2.12813 4.33794e+21 2.88473e-05 21.0241 13.8865 3.10551 
0.008625 0.00140625 1.99218 4.41038e+21 2.9329e-05 13.1098 20.3807 1.41109 
0.006375 0.00159375 1.84667 4.89202e+21 3.25319e-05 29.0198 18.2975 2.35936 
0.007125 0.00159375 1.82678 4.54483e+21 3.02231e-05 26.6854 20.8883 1.33059 
0.006375 0.00178125 1.98479 3.90758e+21 2.59854e-05 10.0751 9.86128 0.0931207 
0.007125 0.00178125 1.87869 4.12361e+21 2.7422e-05 17.3257 17.9549 4.63474 
0.007875 0.00159375 1.95669 4.14715e+21 2.75786e-05 16.586 20.7963 3.12317 
0.008625 0.00159375 2.06085 4.72236e+21 3.14037e-05 10.6221 17.1505 -3.26349 
0.007875 0.00178125 1.95104 4.38411e+21 2.91544e-05 15.3694 23.6819 3.10535 
0.008625 0.00178125 1.99294 4.81617e+21 3.20275e-05 6.04517 19.9421 -4.38319 
0.006375 0.00196875 2.03591 3.13662e+21 2.08585e-05 -8.16822 4.88215 3.39392 
0.007125 0.00196875 1.96907 3.84586e+21 2.55749e-05 11.8797 14.9996 3.24909 
0.006375 0.00215625 1.88328 3.40515e+21 2.26442e-05 1.17059 3.97929 0.56706 
0.007125 0.00215625 1.93458 4.01007e+21 2.6667e-05 9.81497 15.3681 -0.8107 
0.007875 0.00196875 2.001 4.19078e+21 2.78687e-05 11.9552 18.2256 -1.42954 
0.008625 0.00196875 1.99163 4.49546e+21 2.98948e-05 1.1723 19.6655 0.422103 
0.007875 0.00215625 1.96789 4.22527e+21 2.8098e-05 4.77327 18.401 3.20447 
0.008625 0.00215625 1.94369 4.39323e+21 2.9215e-05 5.68244 18.6139 -4.16707 
0.007875 0.00234375 2.00851 3.86793e+21 2.57217e-05 7.20192 17.5325 -1.36307 
0.008625 0.00234375 1.90572 4.14318e+21 2.75521e-05 3.56706 20.54 0.353966 
0.007875 0.00253125 1.95473 3.957e+21 2.6314e-05 4.50536 16.9599 3.25462 
0.008625 0.00253125 2.00888 3.8944e+21 2.58978e-05 1.11418 14.5483 -0.884556 
0.006375 0.00271875 1.81014 3.33286e+21 2.21635e-05 -1.75227 -0.859997 0.312714 
0.007125 0.00271875 1.99169 3.50094e+21 2.32812e-05 0.0125839 5.82221 -0.387547 
0.006375 0.00290625 2.09517 3.57055e+21 2.37441e-05 5.77919 3.74993 3.79361 
0.007125 0.00290625 1.88591 3.64113e+21 2.42135e-05 0.689152 8.68607 3.19537 
0.007875 0.00271875 2.02431 3.73822e+21 2.48592e-05 -0.927348 14.8528 0.0917594 
0.007875 0.00290625 2.00009 3.63334e+21 2.41617e-05 1.50412 20.4431 1.01833 
0.008625 0.00290625 2.02751 4.15128e+21 2.7606e-05 -0.787871 15.0231 0.635344 
0.006375 0.00346875 2.05746 3.43201e+21 2.28229e-05 -0.561346 4.84865 0.72486 
0.007125 0.00346875 2.02176 3.63797e+21 2.41925e-05 -3.71044 9.18262 -3.8079 
0.006375 0.00365625 1.95919 3.5288e+21 2.34665e-05 -1.80342 5.15892 2.42681 
0.006375 0.00384375 2.04482 3.44499e+21 2.29092e-05 -3.14801 3.27362 -0.687247 
0.006375 0.00403125 2.01909 3.51638e+21 2.33839e-05 -5.14663 3.59593 3.92683 
0.006375 0.00421875 1.94259 3.5613e+21 2.36826e-05 0.879771 3.00591 5.12886 
0.006375 0.00440625 2.01567 3.3327e+21 2.21624e-05 -1.41991 5.18687 2.41246 
0.006375 0.00459375 1.97129 3.42764e+21 2.27938e-05 -4.66334 3.89681 -0.614628 
0.006375 0.00478125 2.00072 3.49739e+21 2.32576e-05 0.389898 3.79482 -3.26909 
0.006375 0.00496875 1.93609 3.4551e+21 2.29764e-05 -0.138437 0.698891 0.347636 
0.006375 0.00515625 1.9417 3.35003e+21 2.22777e-05 3.28635 4.84747 4.11963 
0.006375 0.00534375 1.90988 3.55018e+21 2.36087e-05 -1.53178 -1.12668 -2.89094 
0.006375 0.00553125 1.9775 3.34543e+21 2.22471e-05 -0.307481 3.33981 -2.0167 
0.006375 0.00571875 2.08953 3.44354e+21 2.28996e-05 -2.46806 7.46059 0.20814 
0.006375 0.00590625 1.89731 3.41327e+21 2.26982e-05 -2.11838 5.64609 2.64928 
0.006375 0.00609375 1.96181 3.39879e+21 2.26019e-05 -0.224951 5.04708 -0.904088 
0.006375 0.00646875 1.96509 3.3789e+21 2.24697e-05 1.55372 6.40452 -1.01115 
0.006375 0.00665625 2.04786 3.41125e+21 2.26848e-05 -2.94553 7.75465 0.698084 
0.010125 0.00609375 0 0 0 0 0 0 
0.010125 0.00628125 0 0 0 0 0 0 
0.010125 0.00684375 0 0 0 0 0 0 
0.010125 0.00703125 0 0 0 0 0 0 
0.010125 0.00721875 0 0 0 0 0 0 
0.010125 0.00740625 0 0 0 0 0 0 
0.006375 0.00759375 2.02065 3.28632e+21 2.1854e-05 0.35483 0.759984 2.17742 
0.010125 0.00759375 0 0 0 0 0 0 
0.010125 0.00778125 0 0 0 0 0 0 
0.010125 0.00834375 0 0 0 0 0 0 
0.010125 0.00853125 0 0 0 0 0 0 
0.010125 0.00946875 2.05528 3.05055e+21 2.02861e-05 2.14542 2.66873 2.76618 
0.010875 0.00946875 1.88626 3.07791e+21 2.04681e-05 1.44117 -2.24744 -0.30645 
0.011625 0.00946875 1.97613 2.90691e+21 1.9331e-05 4.50406 6.50178 0.29143 
0.015375 0.00271875 1.98976 2.78077e+21 1.84921e-05 -0.556407 1.53526 1.70977 
0.016125 0.00271875 1.95402 2.65588e+21 1.76616e-05 2.821 5.94666 4.32351 
0.015375 0.00290625 2.05911 2.64809e+21 1.76098e-05 1.62326 1.80132 2.09637 
0.016125 0.00290625 1.93654 2.60136e+21 1.72991e-05 -1.39799 -0.139106 -0.514924 
0.016875 0.00384375 1.97828 2.75011e+21 1.82882e-05 1.48891 -0.71186 -0.214547 
0.017625 0.00384375 2.02741 2.80605e+21 1.86602e-05 2.51332 -2.29045 0.307245 
0.016875 0.00403125 1.98395 2.73169e+21 1.81657e-05 1.32463 0.216715 5.30281 
0.015375 0.00421875 1.9743 2.79002e+21 1.85536e-05 2.99151 -0.502363 -2.68377 
0.015375 0.00459375 1.94532 2.70762e+21 1.80057e-05 1.25009 -3.58428 -0.521759 
0.017625 0.00459375 1.97171 2.86037e+21 1.90215e-05 -0.155474 0.0110627 -0.896472 
0.016125 0.00515625 2.02025 2.79855e+21 1.86104e-05 0.820178 -1.09195 3.5212 
0.012375 0.00796875 1.96195 2.47125e+21 1.64338e-05 -11.2991 5.99408 1.22129 
0.012375 0.00815625 2.16302 2.97642e+21 1.97932e-05 -1.91232 -8.64222 4.16041 
0.012375 0.00909375 1.99685 2.63224e+21 1.75044e-05 -2.70928 -6.22311 -1.53079 
0.012375 0.00928125 2.14573 2.52419e+21 1.67858e-05 6.65055 8.81266 -7.20554 
0.012375 0.00946875 2.04367 2.99638e+21 1.99259e-05 3.99285 -0.981232 -1.40021 
0.018375 0.00421875 1.89603 2.91611e+21 1.93921e-05 3.03184 -1.45106 1.16597 
0.021375 0.00384375 1.95456 2.60877e+21 1.73483e-05 2.95942 -1.84963 4.1652 
0.022125 0.00384375 1.89797 2.77661e+21 1.84644e-05 1.80062 -0.378898 -2.48772 
0.021375 0.00403125 2.0241 2.73169e+21 1.81657e-05 2.349 -0.720956 1.88817 
0.022125 0.00403125 2.03801 2.70361e+21 1.7979e-05 3.99292 -0.100308 0.671279 
0.023625 0.00421875 2.01345 2.81148e+21 1.86963e-05 2.76638 -4.18198 -0.333521 
0.023625 0.00440625 2.00553 2.6379e+21 1.75421e-05 3.10058 2.78696 -1.68329 
0.019875 0.00515625 2.0321 2.71954e+21 1.80849e-05 3.8557 -3.5502 1.92471 
0.019875 0.00534375 1.946 2.67283e+21 1.77743e-05 2.06895 -0.144128 2.50264 
0.018375 0.0139688 0 0 0 0 0 0 
0.018375 0.0141563 0 0 0 0 0 0 
0.018375 0.0150937 0 0 0 0 0 0 
0.018375 0.0152812 0 0 0 0 0 0 
0.018375 0.0154687 0 0 0 0 0 0 
0.018375 0.0156563 0 0 0 0 0 0 
0.018375 0.0158438 0 0 0 0 0 0 
0.018375 0.0160313 0 0 0 0 0 0 
0.018375 0.0177187 0 0 0 0 0 0 
0.018375 0.0179062 0 0 0 0 0 0 
0.018375 0.0180937 0 0 0 0 0 0 
0.018375 0.0182812 0 0 0 0 0 0 
0.018375 0.0184687 0 0 0 0 0 0 
0.018375 0.0186562 0 0 0 0 0 0 
0.018375 0.0188437 0 0 0 0 0 0 
0.018375 0.0190312 0 0 0 0 0 0 
0.018375 0.0195938 0 0 0 0 0 0 
0.018375 0.0197812 0 0 0 0 0 0 
0.018375 0.0199687 0 0 0 0 0 0 
0.018375 0.0201562 0 0 0 0 0 0 
0.018375 0.0203437 0 0 0 0 0 0 
0.018375 0.0205312 0 0 0 0 0 0 
0.018375 0.0207187 0 0 0 0 0 0 
0.018375 0.0209062 0 0 0 0 0 0 
0.019875 0.0216562 1.91527 2.77889e+21 1.84796e-05 -0.453303 0.607478 4.83937 
0.020625 0.0216562 1.98551 2.59291e+21 1.72429e-05 -0.346628 -4.59226 0.825725 
0.021375 0.0216562 1.95635 2.75743e+21 1.83369e-05 -4.98911 0.681121 1.27193 
0.022125 0.0216562 2.01639 2.88976e+21 1.92169e-05 -0.460485 -4.67273 2.62573 
0.022875 0.0216562 1.99278 2.83969e+21 1.88839e-05 2.44817 -1.65816 -2.4146 
0.023625 0.0216562 1.92872 2.74312e+21 1.82418e-05 1.28623 -1.69501 -0.793257 
0.01125 0.0016875 0 0 0 0 0 0 
0.01125 0.0020625 0 0 0 0 0 0 
0.01275 0.0016875 1.99285 2.70681e+21 1.80003e-05 2.11164 1.44821 -0.214854 
0.01275 0.0020625 2.02941 2.85514e+21 1.89867e-05 2.74488 -0.642735 1.46024 
0.02775 0.0009375 1.95073 2.69512e+21 1.79225e-05 0.700955 -1.21108 -0.703707 
0.02925 0.0009375 1.98493 2.78566e+21 1.85246e-05 5.92001 -1.18071 3.28688 
0.003375 0.00046875 2.05416 1.3343e+22 8.87306e-05 29.4259 1.78974 0.679203 
0.004125 0.00046875 1.83094 1.23136e+22 8.18857e-05 30.6414 -3.46627 -2.29205 
0.003375 0.00065625 1.73449 1.35926e+22 9.03906e-05 25.7708 -7.35861 2.06761 
0.004125 0.00065625 1.97203 1.16238e+22 7.72983e-05 35.1451 -4.62351 1.13847 
0.004875 0.00159375 1.89733 9.76715e+21 6.49515e-05 10.7722 -4.11829 1.59198 
0.005625 0.00159375 1.8973 8.89726e+21 5.91668e-05 19.284 0.638561 1.76333 
0.004875 0.00178125 0 0 0 0 0 0 
0.005625 0.00178125 0 0 0 0 0 0 
0.027375 0.00309375 2.03723 2.72539e+21 1.81238e-05 0.311615 -0.121055 -1.59633 
0.028125 0.00309375 2.02801 2.62296e+21 1.74427e-05 -0.283143 -1.78629 1.89554 
0.027375 0.00328125 1.93511 2.71797e+21 1.80745e-05 -0.833811 -2.64854 0.467769 
0.028125 0.00328125 2.04348 2.64554e+21 1.75928e-05 1.03687 -0.178986 -3.35399 
0.028875 0.00309375 2.01545 2.69247e+21 1.79049e-05 3.56498 -0.428896 -0.640007 
0.029625 0.00309375 1.98424 2.62662e+21 1.7467e-05 -2.71256 0.912174 3.14996 
0.028875 0.00328125 2.05272 2.56275e+21 1.70423e-05 3.38827 -3.54752 0.709563 
0.029625 0.00328125 1.94073 2.74901e+21 1.82809e-05 2.90295 3.66193 1.55588 
0.029625 0.00421875 1.96736 2.70149e+21 1.79649e-05 3.92418 1.0536 0.891428 
0.025875 0.00478125 2.06543 2.84525e+21 1.89209e-05 1.19759 -0.244285 4.47532 
0.006375 0.00309375 2.08692 3.54621e+21 2.35823e-05 -4.03237 0.960801 1.96898 
0.006375 0.00328125 2.00495 3.48585e+21 2.31809e-05 0.444407 3.641 2.49882 
0.010125 0.00871875 0 0 0 0 0 0 
0.010125 0.00890625 0 0 0 0 0 0 
0.010125 0.00909375 0 0 0 0 0 0 
0.010125 0.00928125 0 0 0 0 0 0 
0.013875 0.00346875 1.98429 2.62978e+21 1.7488e-05 -1.73687 -4.66473 -3.20141 
0.014625 0.00346875 1.99399 2.6983e+21 1.79437e-05 0.557943 2.65472 -0.157247 
0.014625 0.00365625 1.98574 2.76113e+21 1.83615e-05 0.0243715 -1.91731 -1.10329 
0.015375 0.00309375 2.02108 2.71442e+21 1.80509e-05 1.64339 -3.38671 -0.20322 
0.016125 0.00309375 2.06871 2.94123e+21 1.95592e-05 -4.00889 -1.43517 2.75478 
0.015375 0.00328125 2.02727 2.60759e+21 1.73405e-05 1.26663 -0.161347 0.45246 
0.016125 0.00328125 2.08462 2.818e+21 1.87397e-05 -0.504403 -2.73565 0.662768 
0.015375 0.00346875 1.96763 2.6983e+21 1.79437e-05 -0.394354 0.295611 -0.413484 
0.015375 0.00365625 2.02057 2.70851e+21 1.80116e-05 3.82375 0.675685 -2.22426 
0.016125 0.00365625 2.00506 2.68374e+21 1.78469e-05 1.46076 1.20347 2.87152 
0.014625 0.00421875 2.05389 2.65857e+21 1.76795e-05 3.81515 0.455217 -1.55826 
0.016875 0.00421875 2.04948 2.68003e+21 1.78222e-05 -1.38581 2.40463 -2.45611 
0.012375 0.00534375 1.68905 3.20866e+21 2.13376e-05 -3.57103 9.30949 -3.3513 
0.012375 0.00553125 1.9716 2.60882e+21 1.73487e-05 11.3641 -0.584593 0.192576 
0.012375 0.00646875 2.06883 2.75561e+21 1.83248e-05 0.715016 -7.56458 7.45134 
0.012375 0.00665625 2.05821 3.11157e+21 2.06919e-05 -4.22858 0.525051 6.5917 
0.012375 0.00684375 1.99457 3.27438e+21 2.17746e-05 -3.67762 4.27626 4.01771 
0.012375 0.00703125 2.09895 2.46273e+21 1.63771e-05 -12.136 -4.94972 -4.71505 
0.012375 0.00871875 1.96006 2.29761e+21 1.52791e-05 -3.61012 -4.61913 8.50614 
0.012375 0.00890625 2.10666 2.68765e+21 1.78729e-05 3.4057 -5.26988 -0.533906 
0.018375 0.00271875 1.96279 2.68086e+21 1.78277e-05 4.10402 3.02473 4.06228 
0.019125 0.00271875 2.05939 2.97226e+21 1.97655e-05 0.0701496 -2.61021 1.13343 
0.018375 0.00290625 1.95781 2.96353e+21 1.97075e-05 -2.17139 0.46276 0.985881 
0.019125 0.00290625 1.93589 2.72209e+21 1.81019e-05 2.00515 -2.07641 2.42204 
0.019875 0.00271875 1.91266 2.6767e+21 1.78e-05 3.03779 -0.054989 7.45503 
0.020625 0.00271875 2.09635 2.73914e+21 1.82153e-05 1.95951 -2.4001 2.41582 
0.019875 0.00290625 1.9104 2.70261e+21 1.79724e-05 7.03434 -1.96024 -1.40174 
0.020625 0.00290625 2.02958 2.85449e+21 1.89824e-05 0.810581 0.562996 1.54287 
0.018375 0.00346875 1.88786 2.55148e+21 1.69673e-05 2.31026 -3.03289 -0.641633 
0.019125 0.00346875 1.93287 2.74072e+21 1.82258e-05 3.7207 0.365814 -0.529929 
0.018375 0.00365625 1.98522 2.5073e+21 1.66736e-05 2.03009 0.221581 -2.07594 
0.019125 0.00365625 1.97467 2.5073e+21 1.66736e-05 3.01164 0.354361 -2.89699 
0.021375 0.00309375 2.00745 2.56443e+21 1.70534e-05 3.65897 -3.50346 1.94517 
0.022125 0.00309375 1.94725 2.73271e+21 1.81725e-05 3.29857 -5.3963 -2.16297 
0.021375 0.00328125 1.92582 2.68003e+21 1.78222e-05 3.92488 1.79504 7.48642 
0.022125 0.00328125 2.0784 2.70762e+21 1.80057e-05 -0.736426 -2.82885 5.272 
0.021375 0.00346875 1.99761 2.92995e+21 1.94842e-05 4.83841 -1.16925 0.197532 
0.022125 0.00346875 1.90563 2.75703e+21 1.83342e-05 2.16679 -1.85109 0.277952 
0.021375 0.00365625 2.10086 2.6466e+21 1.75999e-05 -0.0782808 2.60471 -2.13319 
0.019875 0.00384375 1.96219 2.80311e+21 1.86407e-05 3.18359 -2.45618 0.139913 
0.020625 0.00384375 2.02817 2.76777e+21 1.84057e-05 4.59329 3.30084 3.59574 
0.019875 0.00403125 1.97435 2.74572e+21 1.82591e-05 1.3083 0.725535 2.54139 
0.021375 0.00421875 1.98907 2.72295e+21 1.81076e-05 2.08705 -0.911286 -0.70882 
0.022125 0.00440625 2.059 2.6379e+21 1.75421e-05 -1.00451 -2.27654 -3.11653 
0.022125 0.00515625 2.00124 2.84026e+21 1.88877e-05 2.11808 0.987315 1.30328 
0.018375 0.0132188 0 0 0 0 0 0 
0.018375 0.0134063 0 0 0 0 0 0 
0.018375 0.0135938 0 0 0 0 0 0 
0.018375 0.0137813 0 0 0 0 0 0 
0.018375 0.0162188 0 0 0 0 0 0 
0.018375 0.0164062 0 0 0 0 0 0 
0.018375 0.0165937 0 0 0 0 0 0 
0.018375 0.0167812 0 0 0 0 0 0 
0.018375 0.0169687 0 0 0 0 0 0 
0.018375 0.0171562 0 0 0 0 0 0 
0.018375 0.0192187 0 0 0 0 0 0 
0.018375 0.0194062 0 0 0 0 0 0 
0.018375 0.0210937 0 0 0 0 0 0 
0.018375 0.0212812 0 0 0 0 0 0 
0.01275 0.0009375 2.0496 2.85772e+21 1.90038e-05 6.23048 -3.06106 -4.47527 
0.01425 0.0009375 1.93017 2.64381e+21 1.75813e-05 -1.07482 5.5927 0.748357 
0.01275 0.0013125 2.002 2.60307e+21 1.73104e-05 -1.93215 3.75785 -0.210528 
0.01575 0.0009375 2.05264 2.79471e+21 1.85848e-05 -0.323504 -1.36195 2.30848 
0.01725 0.0009375 1.94219 2.56836e+21 1.70796e-05 -1.02927 1.49516 2.68163 
0.0054375 0.00117188 1.8857 8.73061e+21 5.80586e-05 30.5378 -2.37811 -2.61695 
0.0058125 0.00117188 1.70185 8.03525e+21 5.34344e-05 36.7167 2.00703 6.92404 
0.0054375 0.00126563 2.07273 9.30006e+21 6.18454e-05 27.4174 -4.52013 -3.50663 
0.0058125 0.00126563 1.83447 8.65621e+21 5.75638e-05 31.7298 5.13359 0.25848 
0.0249375 0.00829688 1.94712 2.72818e+21 1.81424e-05 -1.45883 1.5071 -3.42236 
0.0253125 0.00829688 1.97951 2.89187e+21 1.92309e-05 -1.75584 1.00292 0.401841 
0.0249375 0.00839063 1.97013 2.6923e+21 1.79038e-05 1.73936 -1.62124 3.18756 
0.0253125 0.00839063 2.05391 2.90272e+21 1.93031e-05 3.72084 4.31377 -1.72926 
0.0279375 0.00829688 1.95679 2.67907e+21 1.78158e-05 7.57689 -0.58936 2.85865 
0.0283125 0.00829688 1.91532 2.79366e+21 1.85778e-05 -2.82895 5.68619 0.305968 
0.0279375 0.00839063 1.94432 2.8164e+21 1.8729e-05 0.280917 -7.07536 2.26262 
0.0283125 0.00839063 1.92571 2.6923e+21 1.79038e-05 -0.933234 -0.900131 1.89956 
0.0264375 0.0109219 1.98559 2.79785e+21 1.86057e-05 -0.836502 0.852335 -3.40301 
0.0268125 0.0109219 2.03546 2.53257e+21 1.68416e-05 -0.777796 1.2874 2.30541 
0.0264375 0.0110156 2.06165 2.7576e+21 1.8338e-05 -4.16182 -0.803099 3.04838 
0.0268125 0.0110156 2.04492 2.56444e+21 1.70535e-05 3.49605 0.571391 1.06981 
0.0249375 0.0112969 2.00423 2.78111e+21 1.84944e-05 -1.54178 4.7524 -1.00031 
0.0253125 0.0112969 2.11069 2.85725e+21 1.90007e-05 1.08615 -0.811172 1.59829 
0.0249375 0.0113906 1.98093 2.70656e+21 1.79986e-05 -2.72902 -2.31263 3.94849 
0.0253125 0.0113906 2.02193 2.64297e+21 1.75757e-05 1.10433 4.18596 1.81451 
0.0271875 0.0112969 1.96082 2.73703e+21 1.82013e-05 6.3215 -0.951788 1.8707 
0.0275625 0.0112969 2.04888 2.8292e+21 1.88142e-05 2.14706 0.0148629 -3.21021 
0.0271875 0.0113906 1.91817 2.5754e+21 1.71264e-05 4.48045 0.291886 0.293888 
0.0275625 0.0113906 1.94791 2.63104e+21 1.74964e-05 -0.924735 -1.71195 -2.52063 
0.0279375 0.0112969 1.88586 2.78512e+21 1.85211e-05 -0.797789 3.35704 2.88601 
0.0283125 0.0112969 1.94928 2.79714e+21 1.8601e-05 -0.947506 1.9531 -1.18237 
0.0279375 0.0113906 1.88388 2.73438e+21 1.81836e-05 3.83775 2.58672 -2.17249 
0.0283125 0.0113906 2.02988 2.59925e+21 1.7285e-05 1.8379 1.67982 -2.5827 
0.0294375 0.0112969 2.12137 2.80917e+21 1.86809e-05 1.10793 -2.00489 0.757731 
0.0298125 0.0112969 1.88319 3.00553e+21 1.99867e-05 -2.43717 -0.294162 0.474808 
0.0294375 0.0113906 2.0957 2.97682e+21 1.97958e-05 1.65713 2.16977 -1.91188 
0.0298125 0.0113906 1.98395 2.61912e+21 1.74172e-05 5.79292 2.79641 -2.0659 
0.0279375 0.0118594 1.91373 2.737e+21 1.82011e-05 2.69802 -1.92396 -0.579475 
0.0283125 0.0118594 1.93824 2.79044e+21 1.85564e-05 3.25661 -0.0793171 -1.60756 
0.0279375 0.0119531 1.98154 2.64736e+21 1.7605e-05 3.13331 2.72461 0.798063 
0.0283125 0.0119531 2.0028 2.68902e+21 1.7882e-05 2.94424 -4.20725 -0.525427 
0.0256875 0.0120469 2.05086 2.73198e+21 1.81677e-05 2.60988 -0.214431 -0.809527 
0.0260625 0.0120469 1.99822 2.82217e+21 1.87674e-05 -1.06804 2.42189 -3.75648 
0.0256875 0.0121406 2.07009 2.85258e+21 1.89697e-05 -0.667166 0.852213 0.428627 
0.0260625 0.0121406 1.92219 2.78919e+21 1.85481e-05 2.59858 -2.42306 4.03926 
0.0264375 0.0120469 1.9255 2.70943e+21 1.80177e-05 -3.46308 3.66635 3.9993 
0.0268125 0.0120469 2.04504 2.69064e+21 1.78928e-05 2.70278 -1.23335 -1.6846 
0.0264375 0.0121406 1.97294 2.91597e+21 1.93912e-05 -0.24168 0.931083 2.07403 
0.0268125 0.0121406 1.97808 2.6736e+21 1.77794e-05 3.97928 -4.60411 -0.133736 
0.0256875 0.0122344 2.02878 2.79002e+21 1.85536e-05 1.4834 -0.0640803 -1.02678 
0.0260625 0.0122344 2.06473 2.68641e+21 1.78646e-05 1.76733 -2.72446 -1.14667 
0.0256875 0.0123281 1.9962 2.73942e+21 1.82172e-05 1.83959 -1.36478 -1.82649 
0.0249375 0.0126094 2.01195 2.9799e+21 1.98164e-05 -0.416557 -4.07058 1.07952 
0.0253125 0.0126094 1.90533 2.49522e+21 1.65932e-05 -3.1352 1.08151 -5.79229 
0.0249375 0.0127031 2.02756 2.58728e+21 1.72054e-05 -2.16516 -0.986064 -3.12553 
0.0253125 0.0127031 1.9418 2.76903e+21 1.84141e-05 -3.06961 -4.43786 1.71652 
0.0256875 0.0124219 1.97298 2.74791e+21 1.82736e-05 0.666077 -0.0304029 -1.34936 
0.0260625 0.0124219 1.95367 2.67502e+21 1.77889e-05 2.10597 2.49198 3.77867 
0.0256875 0.0125156 1.94204 2.73817e+21 1.82089e-05 -0.580113 1.73447 -2.74381 
0.0260625 0.0125156 1.8854 2.702e+21 1.79683e-05 -0.552198 -1.71414 -1.30231 
0.0264375 0.0126094 2.03939 2.76808e+21 1.84077e-05 -3.49151 -0.594457 0.452376 
0.0268125 0.0126094 1.99881 2.81834e+21 1.8742e-05 4.1434 2.15067 0.658565 
0.0264375 0.0127031 2.04316 2.82249e+21 1.87695e-05 0.362653 -0.719029 -2.07483 
0.0268125 0.0127031 2.05949 2.79041e+21 1.85563e-05 3.67333 0.38468 0.0544468 
0.0279375 0.0120469 2.05077 2.82593e+21 1.87924e-05 -2.81518 5.34433 0.0843319 
0.0283125 0.0120469 1.94928 2.86726e+21 1.90673e-05 -0.84749 4.79745 -4.01033 
0.0279375 0.0121406 2.0225 2.62139e+21 1.74323e-05 -0.660277 0.772376 1.46207 
0.0283125 0.0121406 2.04762 2.56919e+21 1.70851e-05 1.60219 0.0918636 4.14629 
0.0294375 0.0122344 1.99021 2.85662e+21 1.89966e-05 2.0572 -1.35971 1.99299 
0.0298125 0.0122344 2.17921 2.79372e+21 1.85782e-05 0.714042 4.64405 2.19029 
0.0294375 0.0123281 1.93983 2.76513e+21 1.83881e-05 3.09465 1.23678 -0.460217 
0.0298125 0.0123281 1.92628 2.72841e+21 1.81439e-05 -0.351494 -0.0148671 -2.58762 
0.0271875 0.0124219 1.99122 2.71146e+21 1.80312e-05 1.03102 -3.07902 2.70519 
0.0275625 0.0124219 2.07719 2.65679e+21 1.76677e-05 2.06034 -1.02379 0.593692 
0.0271875 0.0125156 2.01834 2.66221e+21 1.77037e-05 0.583837 2.2802 2.02036 
0.0275625 0.0125156 2.02684 2.77796e+21 1.84734e-05 0.676821 4.95391 -0.513511 
0.0256875 0.0129844 2.03495 2.58005e+21 1.71573e-05 -4.26346 0.874865 -1.07999 
0.0260625 0.0129844 2.00095 2.69859e+21 1.79456e-05 1.60345 1.74416 1.45017 
0.0256875 0.0130781 2.0111 2.95964e+21 1.96816e-05 3.22157 2.45583 -2.05608 
0.0260625 0.0130781 2.05589 2.7381e+21 1.82083e-05 4.98924 1.4792 1.21337 
0.0249375 0.0131719 2.10949 2.66705e+21 1.77359e-05 0.00999499 2.84196 2.63728 
0.0253125 0.0131719 2.03492 2.81828e+21 1.87415e-05 0.0903518 0.0617831 4.28245 
0.0249375 0.0132656 1.98106 2.61749e+21 1.74063e-05 2.33725 -4.18483 0.742031 
0.0253125 0.0132656 2.02221 2.73693e+21 1.82006e-05 3.05746 3.17721 -0.897987 
0.0241875 0.0133594 1.95437 2.71095e+21 1.80278e-05 -0.441198 -3.1655 1.71014 
0.0245625 0.0133594 1.86145 2.56185e+21 1.70363e-05 -4.1345 -1.08137 2.32999 
0.0245625 0.0134531 2.02104 2.7459e+21 1.82602e-05 0.801347 -0.476894 2.01861 
0.0286875 0.0133594 1.9683 2.65673e+21 1.76673e-05 3.94133 4.21874 -0.787892 
0.0290625 0.0133594 1.96665 2.63979e+21 1.75546e-05 1.18116 1.14284 2.33768 
0.0286875 0.0134531 1.96453 2.78628e+21 1.85288e-05 1.54668 0.683968 -3.43528 
0.0290625 0.0134531 1.91935 2.62812e+21 1.7477e-05 3.60781 1.0591 -4.56243 
0.0256875 0.0137344 1.95663 2.92699e+21 1.94645e-05 1.59796 4.19281 0.0603944 
0.0260625 0.0137344 2.01507 2.73911e+21 1.82151e-05 0.540157 2.26056 -1.09955 
0.0256875 0.0138281 2.08654 2.86132e+21 1.90277e-05 -4.40421 3.46884 -0.193322 
0.0260625 0.0138281 2.03686 2.91697e+21 1.93979e-05 -0.851218 2.18987 3.05831 
0.0268125 0.0139219 1.87512 2.72824e+21 1.81428e-05 3.40177 1.04395 2.61637 
0.0264375 0.0140156 2.03283 2.67769e+21 1.78066e-05 -0.227111 -1.62171 -2.65312 
0.0268125 0.0140156 1.945 2.6034e+21 1.73126e-05 -1.8988 2.15477 -4.16596 
0.0271875 0.0137344 1.99028 2.81822e+21 1.87412e-05 -0.294329 -2.81428 -3.41547 
0.0271875 0.0138281 1.91463 2.66489e+21 1.77215e-05 -1.33045 1.22643 -0.735054 
0.0275625 0.0138281 1.95641 2.77292e+21 1.84399e-05 -0.233285 -1.19286 -0.0401922 
0.0294375 0.0135469 1.89624 2.60993e+21 1.73561e-05 4.76346 0.314072 -3.43777 
0.0298125 0.0135469 2.07612 2.78705e+21 1.85339e-05 3.97562 0.26873 -0.339894 
0.0294375 0.0136406 1.97035 2.94047e+21 1.95541e-05 1.41449 3.67563 1.06124 
0.0298125 0.0136406 2.00701 2.7513e+21 1.82961e-05 2.98287 -0.647579 -0.0541117 
0.0279375 0.0141094 1.89511 2.80428e+21 1.86485e-05 -4.18269 2.98037 -1.14974 
0.0283125 0.0141094 1.98816 2.71444e+21 1.8051e-05 3.59841 -2.43726 4.93618 
0.0279375 0.0142031 2.01359 2.54353e+21 1.69145e-05 -1.87136 1.33496 -3.23599 
0.0283125 0.0142031 2.03131 2.84952e+21 1.89493e-05 -1.06676 1.88239 0.615827 
0.0286875 0.0139219 2.05182 2.78677e+21 1.8532e-05 -0.864959 -0.971131 -1.90511 
0.0290625 0.0139219 1.97456 2.6567e+21 1.7667e-05 2.45888 3.33221 1.04204 
0.0286875 0.0140156 2.0477 2.60986e+21 1.73555e-05 -0.474632 -0.909703 -2.98443 
0.0290625 0.0140156 2.03294 2.81012e+21 1.86873e-05 3.81041 -1.47684 1.6159 
0.0294375 0.0141094 1.97321 2.82032e+21 1.87551e-05 2.45082 0.715688 0.747409 
0.0298125 0.0141094 1.98855 2.67594e+21 1.7795e-05 1.66236 2.44118 -1.99309 
0.0298125 0.0142031 2.02725 2.8272e+21 1.88009e-05 5.69557 1.30857 0.871773 
0.0245625 0.0144844 1.99088 2.85982e+21 1.90178e-05 3.3338 -1.69657 -0.696562 
0.0241875 0.0145781 1.98691 2.75448e+21 1.83173e-05 -0.768513 2.10708 2.68019 
0.0245625 0.0145781 1.99062 2.65821e+21 1.76771e-05 -1.0166 -0.630928 -0.00569426 
0.0249375 0.0144844 1.94705 2.71917e+21 1.80825e-05 1.37963 -1.06854 4.35856 
0.0253125 0.0144844 2.00507 2.81606e+21 1.87268e-05 -1.17138 0.210431 0.463796 
0.0249375 0.0145781 1.93169 2.73274e+21 1.81727e-05 -3.08858 1.89214 -2.49854 
0.0253125 0.0145781 2.0794 2.70479e+21 1.79869e-05 2.16762 1.90228 -1.46353 
0.0264375 0.0144844 2.0475 2.80981e+21 1.86853e-05 -2.58638 -2.71748 1.73431 
0.0268125 0.0144844 1.93393 2.70355e+21 1.79786e-05 1.58604 -2.13921 -3.66884 
0.0264375 0.0145781 2.0893 2.95322e+21 1.96389e-05 0.851877 3.18851 0.508776 
0.0268125 0.0145781 2.03268 2.73585e+21 1.81934e-05 0.600801 2.4839 -2.32558 
0.0241875 0.0146719 2.00544 2.59803e+21 1.72769e-05 -2.34008 -1.60525 -1.92056 
0.0245625 0.0146719 2.04156 2.73379e+21 1.81797e-05 -1.64018 -1.60547 1.87466 
0.0245625 0.0147656 1.91373 2.7287e+21 1.81459e-05 5.88125 -1.57207 -0.204946 
0.0249375 0.0148594 1.9622 2.86991e+21 1.90849e-05 -1.30797 -1.12446 3.90689 
0.0253125 0.0148594 1.99987 2.76937e+21 1.84163e-05 -1.94941 -0.808149 2.18933 
0.0249375 0.0149531 1.95793 2.74898e+21 1.82807e-05 -3.39829 4.12619 0.827443 
0.0253125 0.0149531 1.94822 2.80045e+21 1.8623e-05 0.783947 -0.233858 -1.4767 
0.0264375 0.0146719 2.07147 2.74305e+21 1.82413e-05 0.414051 2.58031 -2.53437 
0.0268125 0.0146719 2.01784 2.6906e+21 1.78925e-05 -1.15217 1.88786 -1.58122 
0.0264375 0.0147656 2.05094 2.69191e+21 1.79012e-05 3.81635 0.244191 -3.15879 