ITEM: TIMESTEP
500000
ITEM: NUMBER OF CELLS
6952
ITEM: BOX BOUNDS oo ao pp
0 0.12
0 0.03
-0.1 0.1
ITEM: CELLS xc yc f_out[1] f_out[2] f_out[3] f_out[4] f_out[5] f_out[6] 
0.003 0.00675 0 0 0 0 0 0 
0.003 0.01275 0 0 0 0 0 0 
0.009 0.00675 0 0 0 0 0 0 
0.009 0.01275 0 0 0 0 0 0 
0.003 0.00825 0 0 0 0 0 0 
0.003 0.01425 0 0 0 0 0 0 
0.009 0.00825 0 0 0 0 0 0 
0.009 0.01425 0 0 0 0 0 0 
0.015 0.00825 0 0 0 0 0 0 
0.015 0.01425 0 0 0 0 0 0 
0.003 0.00375 0 0 0 0 0 0 
0.003 0.00975 0 0 0 0 0 0 
0.009 0.00375 0 0 0 0 0 0 
0.009 0.00975 0 0 0 0 0 0 
0.003 0.00525 0 0 0 0 0 0 
0.003 0.01125 0 0 0 0 0 0 
0.009 0.00525 0 0 0 0 0 0 
0.009 0.01125 0 0 0 0 0 0 
0.015 0.00525 0 0 0 0 0 0 
0.015 0.01125 0 0 0 0 0 0 
0.0015 0.000375 0 0 0 0 0 0 
0.0015 0.001125 0 0 0 0 0 0 
0.0015 0.001875 0 0 0 0 0 0 
0.0015 0.002625 0 0 0 0 0 0 
0.0045 0.002625 0 0 0 0 0 0 
0.0075 0.002625 0 0 0 0 0 0 
0.0105 0.002625 0 0 0 0 0 0 
0.0135 0.002625 0 0 0 0 0 0 
0.0165 0.002625 0 0 0 0 0 0 
0.00375 0.0001875 0 0 0 0 0 0 
0.00525 0.0001875 3.81559 4.48361e+23 0.0029816 22.5482 4.31332 -3.88322 
0.00375 0.0005625 0 0 0 0 0 0 
0.00375 0.0009375 0 0 0 0 0 0 
0.00375 0.0013125 0 0 0 0 0 0 
0.00825 0.0001875 4.05923 4.00314e+23 0.00266209 28.8982 -3.13991 3.41579 
0.00975 0.0001875 3.94373 3.54923e+23 0.00236024 28.1815 3.71652 1.2769 
0.01125 0.0001875 3.92344 3.70375e+23 0.00246299 36.2399 2.47535 6.57169 
0.00375 0.0016875 0 0 0 0 0 0 
0.00375 0.0020625 0 0 0 0 0 0 
0.004875 0.00046875 3.08487 4.14897e+23 0.00275907 12.9668 -2.40464 -6.8456 
0.005625 0.00046875 3.93679 4.47347e+23 0.00297486 22.1314 -3.43619 4.7705 
0.004875 0.00065625 3.70069 4.73506e+23 0.00314882 20.2532 0.745352 -9.30282 
0.004875 0.00084375 3.99294 4.13352e+23 0.00274879 18.3295 -8.28976 4.32356 
0.004875 0.00103125 4.03039 4.04572e+23 0.00269041 8.59857 -6.10437 0.402231 
0.004875 0.00121875 3.87098 4.4396e+23 0.00295233 16.8705 0.0332035 4.70347 
0.004875 0.00140625 3.89624 4.38849e+23 0.00291834 17.6972 -4.43439 4.84982 
0.006375 9.375e-05 3.97281 4.32668e+23 0.00287724 18.9921 -0.204187 9.53368 
0.007125 9.375e-05 4.3134 3.94037e+23 0.00262034 29.9549 -4.86121 9.72031 
0.006375 0.00028125 3.79768 3.72146e+23 0.00247477 12.9786 4.09205 -1.48372 
0.007125 0.00028125 3.91958 4.30092e+23 0.00286011 28.5253 12.6913 -6.93694 
0.006375 0.00046875 4.24166 4.11807e+23 0.00273852 26.7492 2.72203 1.19442 
0.007125 0.00046875 4.01614 3.62359e+23 0.00240969 20.7443 -0.276983 -1.94275 
0.007125 0.00065625 3.94627 4.00107e+23 0.00266071 24.5939 2.22081 1.87612 
0.007875 0.00046875 4.01269 4.0099e+23 0.00266658 25.0484 1.96618 -5.23995 
0.008625 0.00046875 3.80039 3.70858e+23 0.00246621 29.0181 -3.94086 -2.46114 
0.007875 0.00065625 3.75829 3.92381e+23 0.00260933 27.5157 -0.683278 -0.955767 
0.008625 0.00065625 4.26091 3.76377e+23 0.0025029 29.2798 -2.55913 1.71149 
0.009375 0.00046875 4.1522 3.75494e+23 0.00249703 26.5716 -3.73982 -3.82798 
0.010125 0.00046875 3.84233 3.5077e+23 0.00233262 29.4634 7.00824 2.87323 
0.009375 0.00065625 3.99738 3.84103e+23 0.00255428 29.6182 -0.85589 -4.27543 
0.010125 0.00065625 4.07199 3.91277e+23 0.00260199 21.7814 2.44999 -6.1538 
0.010875 0.00046875 3.76046 3.84765e+23 0.00255869 29.6922 -1.76213 10.8906 
0.011625 0.00046875 3.97393 3.60814e+23 0.00239941 29.8186 -6.03659 8.47344 
0.010875 0.00065625 4.00558 3.57613e+23 0.00237813 28.8172 -3.71641 -3.33941 
0.011625 0.00065625 3.94238 3.46576e+23 0.00230473 24.6864 -1.93252 -1.41136 
0.006375 0.00084375 3.73727 3.98758e+23 0.00265174 22.023 3.25967 1.35242 
0.010125 0.00084375 3.82174 3.73863e+23 0.00248619 28.4616 0.385369 -1.70572 
0.011625 0.00084375 4.02756 3.54976e+23 0.00236059 32.3535 3.99858 1.96271 
0.010875 0.00103125 4.05995 3.56459e+23 0.00237045 21.3641 -0.954849 -0.679225 
0.004875 0.00159375 4.06665 4.3085e+23 0.00286515 19.1579 -3.38205 -5.40128 
0.004875 0.00178125 3.97953 4.30024e+23 0.00285966 10.6904 -5.941 1.75032 
0.004875 0.00196875 3.70047 4.65161e+23 0.00309332 12.6523 -2.69879 -2.79709 
0.004875 0.00215625 0 0 0 0 0 0 
0.005625 0.00215625 0 0 0 0 0 0 
0.006375 0.00215625 0 0 0 0 0 0 
0.007125 0.00215625 0 0 0 0 0 0 
0.007875 0.00215625 0 0 0 0 0 0 
0.008625 0.00215625 0 0 0 0 0 0 
0.009375 0.00215625 0 0 0 0 0 0 
0.010125 0.00215625 0 0 0 0 0 0 
0.010875 0.00215625 0 0 0 0 0 0 
0.011625 0.00215625 0 0 0 0 0 0 
0.012375 0.00215625 0 0 0 0 0 0 
0.013125 0.00215625 0 0 0 0 0 0 
0.013875 0.00215625 0 0 0 0 0 0 
0.014625 0.00215625 0 0 0 0 0 0 
0.015375 0.00215625 0 0 0 0 0 0 
0.016125 0.00215625 0 0 0 0 0 0 
0.016875 0.00215625 0 0 0 0 0 0 
0.017625 0.00215625 0 0 0 0 0 0 
0.0054375 0.000984375 4.18894 4.75346e+23 0.00316105 15.2712 2.33613 3.47372 
0.0058125 0.000984375 3.89386 4.47384e+23 0.0029751 25.7588 -1.63879 3.49 
0.0054375 0.00107813 3.988 4.6626e+23 0.00310063 15.1316 -3.34342 10.2029 
0.0058125 0.00107813 4.03197 4.52823e+23 0.00301127 16.8204 -8.24182 2.22824 
0.0061875 0.000984375 3.92195 3.88518e+23 0.00258364 11.444 -2.63294 -3.64588 
0.0065625 0.000984375 3.59735 4.12064e+23 0.00274023 20.0422 -3.76701 -10.8499 
0.0061875 0.00107813 3.65717 3.8967e+23 0.0025913 28.3692 -3.88921 -2.33076 
0.0065625 0.00107813 4.08328 3.96388e+23 0.00263598 21.8102 -0.236477 -1.76953 
0.0069375 0.00135937 3.85479 4.18814e+23 0.00278511 25.6664 0.755502 2.8432 
0.0073125 0.00135937 4.06082 3.99631e+23 0.00265755 24.6137 -3.12304 3.72462 
0.0069375 0.00145312 3.62261 4.01763e+23 0.00267172 21.4397 10.1651 -4.17537 
0.0073125 0.00145312 4.04517 3.85812e+23 0.00256565 18.1269 -1.21932 1.36557 
0.0084375 0.00117188 4.04952 3.81984e+23 0.00254019 18.5041 0.157733 -2.12407 
0.0088125 0.00117188 3.91422 4.15361e+23 0.00276215 28.4207 -3.27884 2.69352 
0.0084375 0.00126563 4.10354 4.09775e+23 0.002725 27.3959 5.06989 -2.65857 
0.0088125 0.00126563 4.08384 3.85738e+23 0.00256516 18.9113 7.25811 1.51854 
0.0076875 0.00135937 3.87048 3.99631e+23 0.00265755 19.778 -1.42438 -2.71869 
0.0080625 0.00135937 3.90395 3.85777e+23 0.00256542 24.4682 -2.82398 -5.03011 
0.0076875 0.00145312 3.94925 4.40643e+23 0.00293028 19.9377 -1.46461 -0.113313 
0.0080625 0.00145312 3.90663 3.7983e+23 0.00252587 19.2791 3.80053 -3.70531 
0.0084375 0.00135937 3.99951 4.30536e+23 0.00286307 19.7296 0.917195 0.256833 
0.0088125 0.00135937 3.88203 3.59135e+23 0.00238825 18.8299 -4.08672 -0.0545168 
0.0084375 0.00145312 3.82675 3.83818e+23 0.00255239 17.2653 8.00417 8.91779 
0.0088125 0.00145312 3.87029 3.7983e+23 0.00252587 15.2799 -7.63525 2.92171 
0.0091875 0.00117188 4.18974 3.48606e+23 0.00231823 25.8724 -11.8728 0.757254 
0.0095625 0.00117188 3.92378 4.0918e+23 0.00272105 32.3039 12.313 -1.39996 
0.0091875 0.00126563 3.89268 3.90316e+23 0.0025956 14.0779 3.19993 -0.0483423 
0.0095625 0.00126563 3.88013 3.68569e+23 0.00245098 27.9754 -5.71043 3.05517 
0.0114375 0.00135937 3.99892 3.59135e+23 0.00238825 17.0444 -0.445973 0.510318 
0.0118125 0.00135937 4.13283 3.42084e+23 0.00227486 14.4739 -3.50518 -2.14911 
0.0114375 0.00145312 3.89893 3.72852e+23 0.00247946 16.3379 -1.52425 9.71707 
0.0118125 0.00145312 3.83179 3.76839e+23 0.00250598 23.8785 0.436875 3.82589 
0.0054375 0.00154688 3.77107 3.98953e+23 0.00265304 15.1001 -10.9872 -0.661813 
0.0058125 0.00154688 3.86244 4.54207e+23 0.00302048 14.1976 -4.89752 2.9681 
0.0054375 0.00164063 3.50696 4.37966e+23 0.00291247 18.0143 -1.41192 5.13238 
0.0058125 0.00164063 3.80252 4.25604e+23 0.00283026 12.9898 -4.28302 3.35404 
0.0054375 0.00173438 4.0224 4.5689e+23 0.00303832 10.6207 -3.54067 5.57976 
0.0058125 0.00173438 4.0431 4.30997e+23 0.00286613 5.79361 -6.19271 1.25094 
0.0054375 0.00182813 3.93001 4.37422e+23 0.00290886 12.2669 -3.86258 -2.08335 
0.0058125 0.00182813 3.78812 4.00178e+23 0.00266118 12.618 -4.1612 -2.13125 
0.0054375 0.00192187 3.9255 4.21361e+23 0.00280205 6.93538 -4.77292 -1.31824 
0.0058125 0.00192187 4.13481 3.99501e+23 0.00265668 5.1218 0.371629 5.00132 
0.0054375 0.00201563 3.74278 4.66493e+23 0.00310218 -2.61819 1.54529 -2.28423 
0.0058125 0.00201563 4.16168 4.27071e+23 0.00284002 8.37724 -4.86019 -5.45821 
0.0061875 0.00154688 4.15118 4.43906e+23 0.00295197 20.2152 -5.95211 1.75033 
0.0065625 0.00154688 4.03861 4.04572e+23 0.00269041 12.9656 -5.37071 -1.56274 
0.0061875 0.00164063 3.83576 4.2737e+23 0.00284201 13.6867 -7.38681 -3.40442 
0.0065625 0.00164063 3.86961 4.0088e+23 0.00266585 17.3585 -0.289877 -5.05772 
0.0069375 0.00154688 3.65781 3.98017e+23 0.00264681 11.1122 1.17101 -4.83956 
0.0073125 0.00154688 4.06885 4.29858e+23 0.00285856 13.1227 4.95057 4.51383 
0.0069375 0.00164063 3.94655 3.76156e+23 0.00250144 9.88159 -2.11473 12.6244 
0.0073125 0.00164063 3.79845 4.04412e+23 0.00268934 5.8785 -5.04424 -0.0346909 
0.0061875 0.00173438 4.01669 4.16798e+23 0.0027717 12.1661 1.05501 1.91038 
0.0065625 0.00173438 4.00118 4.17633e+23 0.00277726 8.45811 -0.502519 2.9986 
0.0061875 0.00182813 3.94588 3.93046e+23 0.00261376 2.46844 1.41321 -4.63775 
0.0065625 0.00182813 4.0283 4.31875e+23 0.00287197 5.3617 -4.55679 0.602538 
0.0069375 0.00173438 4.01545 4.24315e+23 0.00282169 16.6675 0.469357 -0.459277 
0.0073125 0.00173438 3.83355 4.03433e+23 0.00268283 11.8004 -3.96157 -0.839221 
0.0069375 0.00182813 4.04144 3.83537e+23 0.00255052 -0.530257 -4.5636 2.78567 
0.0073125 0.00182813 4.13963 3.89876e+23 0.00259268 2.90668 1.27665 3.04648 
0.0076875 0.00154688 3.8697 3.94271e+23 0.0026219 17.2945 4.16172 2.60372 
0.0080625 0.00154688 4.04639 3.76477e+23 0.00250357 15.6107 0.711687 -1.47247 
0.0076875 0.00164063 3.84987 4.0088e+23 0.00266585 13.1568 -1.8937 3.58269 
0.0080625 0.00164063 3.68553 4.20306e+23 0.00279503 12.4782 -6.48407 -1.47057 
0.0076875 0.00173438 3.94691 3.85057e+23 0.00256063 7.13768 -2.90836 -1.11468 
0.0080625 0.00173438 3.86084 4.18468e+23 0.00278281 13.8047 0.270917 9.76318 
0.0076875 0.00182813 4.10338 3.7482e+23 0.00249255 8.23381 -5.58492 -3.2985 
0.0080625 0.00182813 4.14648 3.83537e+23 0.00255052 8.81478 -6.46966 0.378573 
0.0091875 0.00173438 3.88545 3.98422e+23 0.0026495 9.39651 -3.9839 2.14541 
0.0095625 0.00173438 3.80817 3.9341e+23 0.00261618 11.0863 -4.43321 -0.138586 
0.0091875 0.00182813 3.97225 3.47085e+23 0.00230811 10.3048 6.76399 -1.39464 
0.0095625 0.00182813 4.14793 3.85122e+23 0.00256106 6.9802 0.292138 4.34661 
0.0099375 0.00173438 3.82833 4.05104e+23 0.00269394 0.693959 -5.47743 -0.208695 
0.0103125 0.00173438 4.12701 3.57494e+23 0.00237733 8.628 -5.82492 -6.2363 
0.0099375 0.00182813 3.74865 3.73235e+23 0.00248201 2.96632 -5.69734 -3.0107 
0.0103125 0.00182813 3.99065 3.58179e+23 0.00238189 15.4304 7.50848 0.973486 
0.0114375 0.00173438 4.10671 3.44129e+23 0.00228846 7.18589 -3.69384 6.0833 
0.0118125 0.00173438 4.2132 3.71693e+23 0.00247176 9.15952 -3.11684 -5.09883 
0.0114375 0.00182813 4.00222 3.43915e+23 0.00228704 8.78737 -6.8341 0.937731 
0.0118125 0.00182813 4.1704 3.54217e+23 0.00235554 6.79493 2.32825 4.96637 
0.0121875 0.00173438 3.92787 3.34941e+23 0.00222736 10.5798 0.869294 -2.49706 
0.0125625 0.00173438 4.15411 3.64176e+23 0.00242177 7.46382 4.96858 0.977149 
0.0121875 0.00182813 3.89792 3.455e+23 0.00229758 7.34015 -1.1377 8.83457 
0.0125625 0.00182813 3.94777 3.7165e+23 0.00247147 14.0506 2.09716 1.50831 
0.0136875 0.00154688 4.01966 3.07175e+23 0.00204272 19.4617 -2.06439 1.6137 
0.0140625 0.00154688 3.74057 3.64302e+23 0.00242261 12.1967 5.58414 -3.69287 
0.0136875 0.00164063 3.99069 2.81675e+23 0.00187314 14.6321 -8.55388 2.32486 
0.0140625 0.00164063 4.01301 3.67326e+23 0.00244272 8.68923 -1.19834 0.498404 
0.0151875 0.00154688 4.1257 3.17477e+23 0.00211122 20.5474 -3.11112 -1.60791 
0.0155625 0.00154688 4.23008 3.31524e+23 0.00220464 24.334 0.341148 3.32161 
0.0151875 0.00164063 3.80737 3.05516e+23 0.00203168 18.1796 -8.1152 8.17329 
0.0155625 0.00164063 3.78091 3.24059e+23 0.00215499 12.4998 -4.43871 -8.01574 
0.0151875 0.00173438 4.20987 3.39953e+23 0.00226069 13.1104 5.37999 9.25148 
0.0155625 0.00173438 3.96004 2.89837e+23 0.00192742 19.7559 2.64189 0.818838 
0.0151875 0.00182813 4.02967 3.02709e+23 0.00201301 10.1032 0.179798 5.27608 
0.0155625 0.00182813 4.0065 2.87653e+23 0.00191289 15.3023 -4.76979 -4.47211 
0.0159375 0.00173438 3.96318 2.94013e+23 0.00195519 20.2284 -6.45725 -0.0204489 
0.0163125 0.00173438 3.90498 2.94013e+23 0.00195519 11.6917 1.54256 4.51723 
0.0159375 0.00182813 3.94341 2.97954e+23 0.0019814 5.92606 -0.140119 3.54812 
0.0163125 0.00182813 3.85198 2.93992e+23 0.00195505 9.58972 -4.31445 5.28681 
0.0166875 0.00173438 3.999 2.91508e+23 0.00193853 12.6346 5.01514 0.535125 
0.0170625 0.00173438 3.93454 3.20742e+23 0.00213293 10.8448 -3.76612 1.18039 
0.0166875 0.00182813 4.0442 2.98747e+23 0.00198667 -1.42939 2.1503 -5.84415 
0.0170625 0.00182813 4.07974 3.04294e+23 0.00202355 16.1165 -10.1829 -1.95049 
0.0069375 0.00117188 4.17068 3.9929e+23 0.00265528 6.11148 1.96726 -3.93774 
0.0073125 0.00117188 4.00146 3.84456e+23 0.00255663 24.898 3.28208 -5.87535 
0.0069375 0.00126563 4.21312 3.86883e+23 0.00257277 8.57503 -0.783587 1.56355 
0.0073125 0.00126563 4.12054 3.66279e+23 0.00243576 25.9186 -0.924293 -9.56979 
0.0099375 0.00117188 4.02634 3.63441e+23 0.00241688 16.3664 1.11492 -8.88839 
0.0103125 0.00117188 4.02213 3.86928e+23 0.00257307 23.0224 4.57288 -2.36818 
0.0099375 0.00126563 4.22639 3.91461e+23 0.00260322 13.2044 -9.59262 -7.07397 
0.0103125 0.00126563 3.88582 3.65135e+23 0.00242815 24.9593 0.681534 -2.77405 
0.0099375 0.00135937 3.86679 3.70858e+23 0.00246621 24.6308 3.37828 -5.2491 
0.0103125 0.00135937 3.92374 3.74055e+23 0.00248747 21.052 6.65626 -0.34196 
0.0099375 0.00145312 3.96651 3.56901e+23 0.00237339 12.2814 3.56933 1.19471 
0.0103125 0.00145312 4.00405 3.39953e+23 0.00226069 22.8479 9.13428 -1.689 
0.0114375 0.00117188 3.99659 3.59732e+23 0.00239222 19.2849 1.03941 -7.32088 
0.0118125 0.00117188 3.92022 3.64677e+23 0.0024251 21.7541 6.11362 0.767988 
0.0114375 0.00126563 3.78168 3.33085e+23 0.00221502 20.7092 0.339777 1.87267 
0.0118125 0.00126563 3.9962 3.57122e+23 0.00237486 24.4152 1.94471 -11.3186 
0.0084375 0.00173438 3.86883 3.87563e+23 0.0025773 5.40273 0.853206 1.22247 
0.0088125 0.00173438 4.13514 3.87563e+23 0.0025773 14.3085 0.845543 -3.43806 
0.0084375 0.00182813 4.12192 3.93838e+23 0.00261903 10.0263 2.43815 2.95576 
0.0088125 0.00182813 4.05403 3.95423e+23 0.00262956 10.767 2.20137 -3.38691 
0.0061875 0.00192187 4.00507 4.20607e+23 0.00279704 9.63775 1.07415 0.378387 
0.0065625 0.00192187 4.18107 4.28145e+23 0.00284716 5.10248 2.68866 -3.24079 
0.0061875 0.00201563 3.78884 4.2269e+23 0.00281089 2.68277 -8.46622 -12.6284 
0.0065625 0.00201563 3.72822 3.81078e+23 0.00253417 5.1313 -10.8134 -5.45057 
0.0076875 0.00192187 4.03969 3.84426e+23 0.00255643 2.52427 -0.904731 -6.84143 
0.0080625 0.00192187 3.9202 3.6935e+23 0.00245618 18.6562 1.08825 -4.39969 
0.0076875 0.00201563 3.89179 4.1393e+23 0.00275263 -7.90176 -8.1153 1.23191 
0.0080625 0.00201563 4.10604 3.87649e+23 0.00257786 3.7985 -5.71795 -4.12843 
0.0091875 0.00154688 4.13679 3.49318e+23 0.00232297 14.2407 -1.53068 5.32853 
0.0095625 0.00154688 3.7293 3.68985e+23 0.00245375 16.8469 4.05362 8.357 
0.0091875 0.00164063 3.76226 3.80571e+23 0.0025308 17.0043 2.58989 -4.27449 
0.0095625 0.00164063 4.00092 3.73507e+23 0.00248382 12.3481 -7.2446 -3.70438 
0.0106875 0.00154688 3.92118 3.62429e+23 0.00241015 14.7145 -0.0442108 -6.37181 
0.0110625 0.00154688 3.92144 4.07382e+23 0.00270909 16.101 0.599213 5.05019 
0.0106875 0.00164063 4.2148 3.80571e+23 0.0025308 7.28866 5.19048 0.448119 
0.0110625 0.00164063 3.87991 3.479e+23 0.00231354 26.8751 2.3953 0.419473 
0.0114375 0.00154688 4.05902 3.4089e+23 0.00226692 10.9562 5.03904 -8.05612 
0.0118125 0.00154688 3.59963 3.23096e+23 0.00214859 9.90235 6.62917 -1.84802 
0.0114375 0.00164063 4.12767 3.54081e+23 0.00235464 16.288 -6.29551 -1.86512 
0.0118125 0.00164063 4.20393 3.55847e+23 0.00236638 17.355 -1.85817 -1.53525 
0.0106875 0.00173438 4.00595 3.55823e+23 0.00236622 5.01858 -2.83977 -2.68367 
0.0110625 0.00173438 3.84445 3.316e+23 0.00220514 13.5629 -4.19645 0.926136 
0.0106875 0.00182813 4.15393 3.47877e+23 0.00231338 11.5691 0.91519 7.0612 
0.0110625 0.00182813 3.99678 3.59764e+23 0.00239243 15.1394 -6.87551 -1.22852 
0.0121875 0.00154688 3.87394 3.18413e+23 0.00211745 16.7046 1.05655 3.44119 
0.0125625 0.00154688 3.92162 3.49318e+23 0.00232297 16.587 2.63095 -4.54019 
0.0121875 0.00164063 4.06331 3.73507e+23 0.00248382 10.541 0.0573965 -6.28046 
0.0125625 0.00164063 4.11788 3.71741e+23 0.00247208 16.1642 -0.734077 -2.6462 
0.0129375 0.00154688 4.07125 3.23096e+23 0.00214859 18.0521 3.80601 -2.44055 
0.0133125 0.00154688 4.00456 3.25905e+23 0.00216727 19.4998 -1.48077 10.5493 
0.0129375 0.00164063 3.88839 3.41719e+23 0.00227243 17.9424 8.17986 1.56994 
0.0133125 0.00164063 3.99563 3.29357e+23 0.00219022 11.0404 -0.590828 1.60411 
0.0129375 0.00173438 3.98156 3.34106e+23 0.00222181 7.77717 1.13855 4.97081 
0.0133125 0.00173438 4.10618 3.40788e+23 0.00226624 10.0252 -6.69053 -8.15007 
0.0129375 0.00182813 3.78843 3.51047e+23 0.00233446 7.29531 -0.000558758 1.93849 
0.0133125 0.00182813 3.93356 3.03501e+23 0.00201828 7.98033 1.81714 -2.45322 
0.0144375 0.00173438 3.81318 3.33271e+23 0.00221625 9.10041 -4.05575 -0.546817 
0.0148125 0.00173438 3.96568 3.19071e+23 0.00212183 11.8108 4.18298 -0.715213 
0.0144375 0.00182813 3.86599 3.21727e+23 0.00213949 15.3181 2.66204 -1.58034 
0.0148125 0.00182813 3.82186 2.92407e+23 0.00194451 9.90993 0.304934 2.69153 
0.0174375 0.00173438 3.6125 2.86496e+23 0.0019052 23.8136 -6.72575 1.46306 
0.0178125 0.00173438 3.82408 2.86496e+23 0.0019052 4.96846 1.74411 3.37794 
0.0174375 0.00182813 3.91412 2.86068e+23 0.00190235 17.8967 2.00325 7.87993 
0.0178125 0.00182813 3.8495 2.77351e+23 0.00184438 14.7846 1.00003 0.406712 
0.0106875 0.00135937 4.33241 3.77252e+23 0.00250873 21.4157 3.92077 13.6745 
0.0110625 0.00135937 3.94863 3.42084e+23 0.00227486 20.2806 -4.67948 -4.70702 
0.0106875 0.00145312 3.9603 3.7983e+23 0.00252587 21.4426 9.08686 0.263635 
0.0110625 0.00145312 4.20024 3.74846e+23 0.00249272 14.03 3.40361 -3.42548 
0.0099375 0.00154688 3.96348 3.71794e+23 0.00247243 15.8424 1.23307 3.06785 
0.0103125 0.00154688 4.19009 3.7554e+23 0.00249734 20.0911 4.25844 -0.21772 
0.0099375 0.00164063 3.87991 3.82337e+23 0.00254254 15.8562 -0.21132 -3.38748 
0.0103125 0.00164063 4.12541 3.84103e+23 0.00255428 11.3525 -6.16008 4.97515 
0.0091875 0.00192187 4.00686 3.64828e+23 0.0024261 8.14625 2.13037 2.90356 
0.0095625 0.00192187 4.01783 3.6935e+23 0.00245618 7.4611 -3.11781 -4.61109 
0.0091875 0.00201563 3.77763 3.81078e+23 0.00253417 11.6054 7.49023 -1.11739 
0.0095625 0.00201563 3.82042 3.10995e+23 0.00206812 -4.89233 7.5295 9.69302 
0.0099375 0.00192187 4.17519 3.90456e+23 0.00259653 5.69552 2.97528 1.35435 
0.0103125 0.00192187 4.262 3.54275e+23 0.00235593 8.80268 -1.04676 3.10383 
0.0099375 0.00201563 4.22853 3.78888e+23 0.00251961 6.15515 0.603733 2.76843 
0.0103125 0.00201563 4.40724 3.74508e+23 0.00249048 7.95399 -8.09606 -5.7309 
0.0144375 0.00154688 3.85887 3.29651e+23 0.00219218 14.6792 7.20721 1.29937 
0.0148125 0.00154688 4.06775 3.36207e+23 0.00223578 25.1173 1.28852 7.68102 
0.0144375 0.00164063 3.77393 3.31123e+23 0.00220197 10.6907 -4.9805 8.56828 
0.0148125 0.00164063 4.20445 2.95803e+23 0.00196709 20.417 -3.42487 0.972992 
0.0136875 0.00192187 3.99659 3.53521e+23 0.00235091 10.8763 -5.80442 -2.19168 
0.0140625 0.00192187 4.0864 3.47491e+23 0.00231081 10.0946 -4.11878 7.89991 
0.0136875 0.00201563 4.05726 3.24136e+23 0.0021555 -8.4172 -0.994755 -3.24539 
0.0140625 0.00201563 3.78808 3.37276e+23 0.00224289 12.9347 -2.67956 12.4943 
0.0144375 0.00192187 4.14383 3.13571e+23 0.00208525 11.4563 1.85554 3.94643 
0.0148125 0.00192187 3.78892 3.1131e+23 0.00207021 9.30947 3.73562 0.964418 
0.0144375 0.00201563 4.15337 3.67938e+23 0.00244679 6.18347 8.06673 -6.24716 
0.0148125 0.00201563 4.23633 3.04425e+23 0.00202442 15.2002 -2.76985 2.33325 
0.0166875 0.00154688 3.80005 3.02493e+23 0.00201158 17.261 1.34316 -7.51704 
0.0170625 0.00154688 3.911 2.92191e+23 0.00194307 14.1002 4.45258 -7.32678 
0.0166875 0.00164063 3.84665 3.15229e+23 0.00209627 19.341 -6.82346 -0.964795 
0.0170625 0.00164063 4.3023 3.37304e+23 0.00224307 14.5929 5.86927 -3.14743 
0.0054375 0.00117188 3.77318 4.43793e+23 0.00295123 15.8894 -0.992732 1.40083 
0.0058125 0.00117188 3.74797 4.45029e+23 0.00295945 14.0318 -3.50196 -0.2208 
0.0054375 0.00126563 4.02655 4.34957e+23 0.00289246 18.3016 -2.08416 -0.386532 
0.0058125 0.00126563 3.88592 4.39535e+23 0.00292291 19.1854 2.11385 2.32033 
0.0054375 0.00135937 3.93426 4.17748e+23 0.00277802 10.1226 -11.1569 -7.04281 
0.0058125 0.00135937 3.98253 4.16682e+23 0.00277094 21.1101 -6.29795 -15.5143 
0.0054375 0.00145312 4.23165 4.27683e+23 0.00284409 17.193 -1.87528 6.58459 
0.0058125 0.00145312 4.04605 4.39646e+23 0.00292365 13.4957 -5.66312 -10.0902 
0.0106875 0.00192187 3.79305 3.73873e+23 0.00248626 3.43188 -0.744961 4.63105 
0.0110625 0.00192187 3.94566 3.18847e+23 0.00212033 1.16734 5.18231 -4.58533 
0.0106875 0.00201563 3.8697 3.48227e+23 0.00231571 3.77322 -2.5337 13.2601 
0.0110625 0.00201563 3.61554 3.37276e+23 0.00224289 12.4707 -3.40924 -7.44194 
0.0136875 0.00173438 3.87579 3.18236e+23 0.00211627 12.6321 -1.23752 -0.929475 
0.0140625 0.00173438 3.90027 3.37447e+23 0.00224402 14.671 7.09415 -2.0239 
0.0136875 0.00182813 3.69379 3.1935e+23 0.00212368 13.6502 -3.65574 4.01283 
0.0140625 0.00182813 3.88963 3.1618e+23 0.0021026 4.81583 3.81512 -5.83562 
0.0159375 0.00154688 3.83657 2.82826e+23 0.00188079 21.0492 0.0575284 2.20719 
0.0163125 0.00154688 4.00032 3.14667e+23 0.00209254 23.3818 -8.64267 6.16923 
0.0159375 0.00164063 3.81134 3.09048e+23 0.00205517 14.5901 -2.87054 2.42837 
0.0163125 0.00164063 4.0119 2.96686e+23 0.00197296 19.175 4.82246 4.03965 
0.0151875 0.00192187 3.91368 2.86435e+23 0.00190479 4.12543 -1.33561 -3.21236 
0.0155625 0.00192187 3.95181 3.42968e+23 0.00228074 8.97232 -0.911441 3.77697 
0.0151875 0.00201563 3.98826 3.46037e+23 0.00230114 12.7552 6.91206 1.94148 
0.0155625 0.00201563 4.17032 3.06615e+23 0.00203899 -13.5725 5.13774 -14.8016 
0.0084375 0.000984375 4.0979 3.56141e+23 0.00236834 26.9023 -0.481745 -1.03195 
0.0088125 0.000984375 3.72952 4.12064e+23 0.00274023 21.088 5.65999 -5.51147 
0.0084375 0.00107813 3.74321 3.76233e+23 0.00250195 24.3915 -5.30013 -6.6247 
0.0088125 0.00107813 4.00192 4.05794e+23 0.00269853 25.0472 0.251414 10.1385 
0.0084375 0.000796875 4.26504 3.94491e+23 0.00262337 22.6551 -8.38696 -8.1157 
0.0088125 0.000796875 3.55005 3.76312e+23 0.00250247 24.9631 -0.395761 -1.44995 
0.0084375 0.000890625 3.99057 4.00136e+23 0.00266091 22.279 10.4672 -3.62298 
0.0088125 0.000890625 4.07313 3.95256e+23 0.00262846 20.4376 -5.29688 -5.98035 
0.0061875 0.00135937 4.24047 4.26273e+23 0.00283472 16.0355 0.415847 0.683456 
0.0065625 0.00135937 3.85684 4.01763e+23 0.00267172 18.2879 -2.59142 -0.129047 
0.0061875 0.00145312 4.02114 4.11732e+23 0.00273802 14.3919 -7.10409 0.845104 
0.0065625 0.00145312 3.91814 4.01763e+23 0.00267172 11.6161 1.87855 -12.0883 
0.0091875 0.000984375 4.16964 4.38554e+23 0.00291639 33.8969 1.81401 -3.43954 
0.0095625 0.000984375 3.59062 3.69386e+23 0.00245642 33.8735 4.84524 5.85286 
0.0091875 0.00107813 3.9653 3.68171e+23 0.00244833 21.5929 3.64547 5.16364 
0.0095625 0.00107813 4.04382 3.60108e+23 0.00239472 14.4523 6.84357 -6.13999 
0.0121875 0.00192187 3.96489 3.65581e+23 0.00243112 4.91297 -6.11183 0.708248 
0.0125625 0.00192187 3.81811 3.36184e+23 0.00223562 5.74928 0.286913 5.27039 
0.0121875 0.00201563 4.10753 3.43847e+23 0.00228658 -0.68884 -1.97712 -12.7836 
0.0125625 0.00201563 4.32323 3.61367e+23 0.00240309 13.7637 14.1894 10.8443 
0.0084375 0.00154688 3.83338 3.96144e+23 0.00263436 7.9139 -5.07385 -7.12329 
0.0088125 0.00154688 3.94488 4.17683e+23 0.00277759 13.9038 -3.80782 -2.7247 
0.0084375 0.00164063 4.07975 3.75273e+23 0.00249556 17.864 -6.83306 2.83851 
0.0088125 0.00164063 3.86665 3.9205e+23 0.00260713 12.8649 2.85366 4.81588 
0.0091875 0.00135937 4.12656 3.76186e+23 0.00250164 24.9778 -1.93628 2.45366 
0.0095625 0.00135937 3.88536 3.78318e+23 0.00251581 20.7648 -3.66975 4.07331 
0.0091875 0.00145312 3.76913 3.76839e+23 0.00250598 18.5799 3.61884 -0.880416 
0.0095625 0.00145312 3.96592 3.68864e+23 0.00245295 8.15225 3.43457 -2.58155 
0.0114375 0.00192187 4.10665 3.62566e+23 0.00241107 7.02453 1.4098 -3.52147 
0.0118125 0.00192187 3.98028 3.45983e+23 0.00230079 0.0179464 -0.696024 -5.0598 
0.0114375 0.00201563 3.65671 3.65748e+23 0.00243222 10.7311 -0.399421 20.916 
0.0118125 0.00201563 3.91031 3.67938e+23 0.00244679 -4.86245 -8.43146 -1.25312 
0.0069375 0.00192187 4.10007 4.18346e+23 0.002782 0.624735 -1.79659 -1.07682 
0.0073125 0.00192187 4.06016 3.82918e+23 0.00254641 0.0469347 2.91878 0.884601 
0.0069375 0.00201563 3.8244 3.65748e+23 0.00243222 1.98255 -3.47103 -9.77155 
0.0073125 0.00201563 3.73714 3.70128e+23 0.00246135 3.09051 -0.258422 1.79482 
0.0174375 0.00154688 3.76605 2.84699e+23 0.00189325 26.7567 11.3368 -2.71926 
0.0178125 0.00154688 3.91569 2.74397e+23 0.00182474 16.0723 -5.11674 -5.60858 
0.0174375 0.00164063 4.07291 3.11697e+23 0.00207279 18.3235 -0.484828 -4.60628 
0.0178125 0.00164063 3.96664 3.01101e+23 0.00200232 10.7822 -6.34951 1.63072 
0.0166875 0.00192187 4.00382 3.03018e+23 0.00201507 5.90587 3.70515 4.91012 
0.0170625 0.00192187 4.1726 2.75882e+23 0.00183462 5.49191 8.6975 -1.72938 
0.0166875 0.00201563 4.00751 3.26326e+23 0.00217007 23.0443 14.8533 -8.07288 
0.0170625 0.00201563 3.76822 3.15375e+23 0.00209725 3.03389 4.8958 -3.46267 
0.0174375 0.00192187 3.82623 2.88696e+23 0.00191983 9.69319 6.83119 -5.19211 
0.0178125 0.00192187 3.78656 3.06033e+23 0.00203512 7.60606 -1.39893 -2.98622 
0.0174375 0.00201563 4.03827 3.06615e+23 0.00203899 8.24252 2.75424 -6.59525 
0.0178125 0.00201563 3.66624 2.97854e+23 0.00198073 6.31187 -5.18518 10.1278 
0.0076875 0.00117188 3.7775 4.04235e+23 0.00268816 17.2805 -3.56652 -3.12698 
0.0080625 0.00117188 4.10411 3.64677e+23 0.0024251 13.4463 -6.93113 5.16931 
0.0076875 0.00126563 3.84808 4.06341e+23 0.00270217 25.2527 -1.40994 9.77367 
0.0080625 0.00126563 3.62107 3.59412e+23 0.00239009 18.1344 4.26737 5.61899 
0.0129375 0.00192187 3.99222 3.39199e+23 0.00225568 7.60288 1.57149 -3.22518 
0.0133125 0.00192187 3.85456 3.42968e+23 0.00228074 5.31011 -2.18854 0.949584 
0.0129375 0.00201563 4.2726 3.43847e+23 0.00228658 17.4422 2.46973 -3.68619 
0.0133125 0.00201563 3.79881 3.48227e+23 0.00231571 -3.2113 -11.694 -1.07854 
0.0061875 0.00117188 4.02212 3.86928e+23 0.00257307 21.1685 -11.9686 -4.62361 
0.0065625 0.00117188 3.90267 4.27723e+23 0.00284436 24.4165 6.7311 2.16258 
0.0061875 0.00126563 4.14038 3.98329e+23 0.00264889 22.2073 -9.50326 -3.74001 
0.0065625 0.00126563 3.84322 4.00618e+23 0.00266411 18.4769 2.32551 1.57412 
0.0076875 0.000984375 3.92793 3.62028e+23 0.00240749 17.7729 -1.74342 3.51297 
0.0080625 0.000984375 3.86008 3.92933e+23 0.002613 18.8152 7.10685 -0.288038 
0.0076875 0.00107813 3.75274 4.46104e+23 0.00296659 26.7895 3.22063 -6.59937 
0.0080625 0.00107813 3.78196 4.01763e+23 0.00267172 20.6755 -5.12991 5.19955 
0.0084375 0.00192187 4.17794 3.82918e+23 0.00254641 7.50572 -3.64883 -2.62384 
0.0088125 0.00192187 3.94911 4.07039e+23 0.00270681 0.925316 4.23608 0.11699 
0.0084375 0.00201563 3.62162 3.89839e+23 0.00259243 2.96548 5.82556 -4.37855 
0.0088125 0.00201563 4.12648 3.59177e+23 0.00238853 15.407 -17.4507 0.59524 
0.0054375 0.000609375 4.04317 4.08895e+23 0.00271915 20.4397 -5.70696 0.18881 
0.0058125 0.000609375 4.12862 3.99385e+23 0.00265591 22.1983 6.07692 -0.434815 
0.0054375 0.000703125 4.01708 4.4709e+23 0.00297315 20.1993 -5.05895 1.26033 
0.0058125 0.000703125 3.49879 4.12064e+23 0.00274023 16.6327 -3.60722 7.55679 
0.0159375 0.00192187 3.86709 3.0151e+23 0.00200504 8.56249 4.65568 4.00427 
0.0163125 0.00192187 4.24898 2.93219e+23 0.00194991 11.2521 0.137491 7.7581 
0.0159375 0.00201563 3.74786 2.75953e+23 0.00183509 23.9829 2.79122 -1.59475 
0.0163125 0.00201563 4.16193 2.71573e+23 0.00180596 22.3756 -1.76934 17.006 
0.0091875 0.000796875 3.99894 4.05399e+23 0.0026959 24.87 0.79028 9.10678 
0.0095625 0.000796875 4.13403 3.47225e+23 0.00230904 22.2771 2.6012 -0.902477 
0.0091875 0.000890625 3.91816 3.64352e+23 0.00242294 31.6418 3.49874 -3.25664 
0.0095625 0.000890625 3.95575 3.87124e+23 0.00257437 28.0794 -4.21895 -3.49965 
0.0114375 0.000984375 4.12952 3.79688e+23 0.00252492 26.0868 7.84531 5.23284 
0.0118125 0.000984375 4.05686 3.32595e+23 0.00221176 24.2237 -0.164101 6.30637 
0.0114375 0.00107813 3.80371 3.21141e+23 0.00213559 24.6435 -6.89256 -2.68895 
0.0118125 0.00107813 4.18615 3.10392e+23 0.00206411 28.2168 -6.78036 5.78925 
0.0061875 0.000609375 3.64246 4.20781e+23 0.00279819 20.2368 5.4725 2.24587 
0.0065625 0.000609375 3.78609 4.06517e+23 0.00270334 27.934 -0.583073 4.31405 
0.0061875 0.000703125 4.11855 4.24426e+23 0.00282243 14.8769 -2.8696 7.10733 
0.0065625 0.000703125 3.46693 4.18245e+23 0.00278133 17.8703 13.3328 -5.32442 
0.0076875 0.000796875 3.87388 3.6904e+23 0.00245412 20.6247 -7.27582 -1.01484 
0.0080625 0.000796875 3.88087 4.05399e+23 0.0026959 31.2617 -6.76129 -5.36892 
0.0076875 0.000890625 3.97265 3.69231e+23 0.00245539 14.9978 1.13149 -0.64423 
0.0080625 0.000890625 4.1214 3.80617e+23 0.00253111 27.3072 3.73808 3.60544 
0.0099375 0.000984375 3.95838 3.38481e+23 0.0022509 21.1148 -7.38892 -4.40691 
0.0103125 0.000984375 3.68651 3.48783e+23 0.00231941 22.1568 7.99554 -3.30508 
0.0099375 0.00107813 3.71637 3.7892e+23 0.00251982 18.7536 -0.775465 -5.47386 
0.0103125 0.00107813 3.6461 3.7892e+23 0.00251982 25.1702 0.783586 4.90229 
0.0054375 0.000796875 3.99639 4.01763e+23 0.00267172 15.671 5.44325 -6.8377 
0.0058125 0.000796875 3.62194 3.70858e+23 0.00246621 16.8262 -5.86178 7.63216 
0.0054375 0.000890625 3.86056 4.13149e+23 0.00274744 27.8448 0.161959 -3.42363 
0.0058125 0.000890625 4.4813 4.19655e+23 0.00279071 22.921 3.93003 -5.47736 
0.0069375 0.000796875 3.7568 3.90855e+23 0.00259919 27.0545 -10.5668 9.98765 