ITEM: TIMESTEP
500000
ITEM: NUMBER OF CELLS
37126
ITEM: BOX BOUNDS oo ao pp
0 0.35
0 0.03
-0.1 0.1
ITEM: CELLS xc yc f_out[1] f_out[2] f_out[3] f_out[4] f_out[5] f_out[6] 
0.00875 0.01575 0 0 0 0 0 0 
0.00875 0.01875 0 0 0 0 0 0 
0.00875 0.02175 0 0 0 0 0 0 
0.00875 0.02475 0 0 0 0 0 0 
0.00875 0.02775 0 0 0 0 0 0 
0.02625 0.02475 0 0 0 0 0 0 
0.02625 0.02775 0 2.18488e+15 1.45295e-11 -98.3548 5.00251 -9.54677 
0.00875 0.01425 0 0 0 0 0 0 
0.00875 0.01725 0 0 0 0 0 0 
0.00875 0.02025 0 0 0 0 0 0 
0.00875 0.02325 0 0 0 0 0 0 
0.00875 0.02625 0 0 0 0 0 0 
0.00875 0.02925 0 0 0 0 0 0 
0.02625 0.02325 0 0 0 0 0 0 
0.02625 0.02625 0 0 0 0 0 0 
0.02625 0.02925 0 0 0 0 0 0 
0.04375 0.02325 0 0 0 0 0 0 
0.04375 0.02625 0 0 0 0 0 0 
0.04375 0.02925 0.0561829 6.21851e+15 4.13531e-11 -47.9303 8.91535 8.12499 
0.004375 0.013125 0 0 0 0 0 0 
0.013125 0.013125 0 0 0 0 0 0 
0.021875 0.022125 0 0 0 0 0 0 
0.030625 0.022125 0 0 0 0 0 0 
0.0021875 0.0001875 1.88683 1.38464e+22 9.20786e-05 35.5668 2.22421 2.65771 
0.0109375 0.0001875 2.0456 5.83296e+21 3.87892e-05 5.06587 9.03183 7.42925 
0.0109375 0.0001875 2.13317 2.55647e+21 1.70005e-05 -13.3725 2.63768 7.21983 
0.0153125 0.0001875 1.99586 2.66451e+21 1.7719e-05 -1.97256 1.38869 -2.13693 
0.0109375 0.0005625 2.08531 5.31061e+21 3.53155e-05 9.27103 10.5709 0.0567261 
0.0109375 0.0005625 1.87476 2.39669e+21 1.5938e-05 -3.69446 0.255391 0.671878 
0.0021875 0.0031875 0 0 0 0 0 0 
0.0021875 0.0035625 0 0 0 0 0 0 
0.0021875 0.0039375 0 0 0 0 0 0 
0.0021875 0.0043125 0 0 0 0 0 0 
0.0021875 0.0061875 0 0 0 0 0 0 
0.0021875 0.0065625 0 0 0 0 0 0 
0.0021875 0.0069375 0 0 0 0 0 0 
0.0021875 0.0073125 0 0 0 0 0 0 
0.0021875 0.0091875 0 0 0 0 0 0 
0.0021875 0.0095625 0 0 0 0 0 0 
0.0021875 0.0099375 0 0 0 0 0 0 
0.0021875 0.0103125 0 0 0 0 0 0 
0.0021875 0.0121875 0 0 0 0 0 0 
0.0021875 0.0125625 0 0 0 0 0 0 
0.0021875 0.0020625 0 0 0 0 0 0 
0.0021875 0.0024375 0 0 0 0 0 0 
0.0021875 0.0028125 0 0 0 0 0 0 
0.0021875 0.0046875 0 0 0 0 0 0 
0.0021875 0.0050625 0 0 0 0 0 0 
0.0021875 0.0054375 0 0 0 0 0 0 
0.0021875 0.0058125 0 0 0 0 0 0 
0.0021875 0.0076875 0 0 0 0 0 0 
0.0021875 0.0080625 0 0 0 0 0 0 
0.0021875 0.0084375 0 0 0 0 0 0 
0.0021875 0.0088125 0 0 0 0 0 0 
0.0021875 0.0106875 0 0 0 0 0 0 
0.0021875 0.0110625 0 0 0 0 0 0 
0.0021875 0.0114375 0 0 0 0 0 0 
0.0021875 0.0118125 0 0 0 0 0 0 
0.0284375 0.0001875 1.98912 2.59207e+21 1.72373e-05 -2.7166 1.09135 0.330785 
0.0328125 0.0001875 2.08708 2.64898e+21 1.76158e-05 0.649724 1.14336 2.12659 
0.00546875 9.375e-05 1.88209 1.03476e+22 6.88115e-05 45.6831 -0.882331 0.98255 
0.00765625 9.375e-05 1.94432 4.88407e+21 3.2479e-05 49.8821 8.10454 -2.10491 
0.00546875 0.00028125 1.75414 9.39562e+21 6.24809e-05 42.8258 4.76606 2.38081 
0.00765625 0.00028125 1.81694 5.20139e+21 3.45893e-05 48.2345 3.70656 -0.238626 
0.00109375 0.00046875 0 0 0 0 0 0 
0.00328125 0.00046875 1.90508 1.30319e+22 8.66622e-05 32.6503 -3.37994 0.403172 
0.00109375 0.00065625 0 0 0 0 0 0 
0.00765625 0.00046875 1.82438 5.28969e+21 3.51765e-05 47.3937 4.92187 1.20621 
0.00765625 0.00065625 1.92818 5.09102e+21 3.38553e-05 42.5641 8.45952 4.32481 
0.00109375 0.00084375 0 0 0 0 0 0 
0.00109375 0.00103125 0 0 0 0 0 0 
0.00109375 0.00121875 0 0 0 0 0 0 
0.00109375 0.00140625 0 0 0 0 0 0 
0.0142187 0.00121875 2.07707 2.39427e+21 1.59219e-05 5.03847 -1.84129 1.31001 
0.0164062 0.00121875 2.01029 2.45477e+21 1.63242e-05 -1.07229 0.290199 0.933322 
0.0142187 0.00140625 1.90864 2.57172e+21 1.7102e-05 1.87473 -4.26573 0.80602 
0.0164062 0.00140625 2.00416 2.62139e+21 1.74323e-05 -1.00791 -1.23175 -0.35302 
0.00546875 0.00309375 1.96853 3.48609e+21 2.31825e-05 4.67396 9.07789 3.5232 
0.00546875 0.00328125 2.05716 3.10428e+21 2.06435e-05 -4.6242 -4.809 -3.09817 
0.00546875 0.00346875 2.02126 3.23589e+21 2.15186e-05 0.509123 10.2135 4.96321 
0.00546875 0.00365625 1.87195 3.4414e+21 2.28853e-05 1.98898 6.54862 -7.25879 
0.0120312 0.00309375 2.19534 2.47254e+21 1.64424e-05 0.402154 -0.543912 0.0273702 
0.0120312 0.00328125 1.9163 2.28865e+21 1.52195e-05 -1.78336 2.74368 0.314332 
0.00546875 0.00384375 2.02126 3.29431e+21 2.19071e-05 -1.20262 4.70562 3.90881 
0.00546875 0.00403125 1.96717 3.23026e+21 2.14812e-05 -3.88266 4.53305 -0.89267 
0.00546875 0.00421875 1.94997 3.6832e+21 2.44933e-05 8.07691 3.6082 -0.2752 
0.00546875 0.00440625 2.02362 2.8375e+21 1.88693e-05 -2.09722 -2.05134 -3.76904 
0.0120312 0.00421875 1.99528 2.43811e+21 1.62134e-05 2.33996 -1.86418 -1.83646 
0.0120312 0.00440625 1.97492 2.42502e+21 1.61264e-05 -2.07031 1.08257 4.69698 
0.00546875 0.00609375 2.00323 3.20541e+21 2.1316e-05 3.64967 3.28775 3.82339 
0.00546875 0.00628125 2.0345 3.12881e+21 2.08066e-05 -4.03137 3.92957 2.49216 
0.00546875 0.00646875 2.02614 3.14309e+21 2.09016e-05 -1.49651 0.0479214 0.734111 
0.00546875 0.00665625 2.01192 3.03655e+21 2.01931e-05 3.03118 4.27425 5.95368 
0.0120312 0.00609375 1.98447 2.66462e+21 1.77197e-05 -0.628564 -1.7137 -5.31171 
0.0120312 0.00646875 2.132 2.42679e+21 1.61382e-05 -1.69107 -1.87068 -1.68662 
0.0120312 0.00665625 1.99875 2.41844e+21 1.60826e-05 -1.08719 0.872106 -3.31512 
0.00546875 0.00684375 1.9631 3.34442e+21 2.22404e-05 0.0878523 1.02724 -2.23179 
0.00546875 0.00703125 2.05153 3.18706e+21 2.11939e-05 -1.51067 1.90101 1.32 
0.00546875 0.00721875 1.97834 3.33669e+21 2.2189e-05 -3.09008 4.72274 -2.92058 
0.00546875 0.00740625 1.96537 3.05266e+21 2.03002e-05 -2.40401 2.85646 -2.33952 
0.0120312 0.00684375 2.15548 2.53896e+21 1.68841e-05 -0.219269 0.507195 1.4301 
0.0120312 0.00703125 1.95142 2.47977e+21 1.64905e-05 -3.55355 2.11231 2.93637 
0.0120312 0.00740625 2.00734 2.45129e+21 1.63011e-05 2.07622 -1.29399 -3.74008 
0.00546875 0.00909375 1.97644 2.97815e+21 1.98047e-05 -5.50642 3.47086 -3.41053 
0.00546875 0.00928125 2.05049 2.9395e+21 1.95477e-05 0.639692 1.01011 4.12584 
0.00546875 0.00946875 2.06284 2.77161e+21 1.84312e-05 1.23476 4.44633 0.543094 
0.00546875 0.00965625 1.97151 2.75916e+21 1.83484e-05 -1.87825 6.99387 -0.600115 
0.0120312 0.00909375 2.03386 2.44226e+21 1.6241e-05 1.69218 0.612636 2.90575 
0.0120312 0.00928125 1.95744 2.62963e+21 1.7487e-05 1.13575 -1.50348 -3.12615 
0.00546875 0.00984375 2.00664 2.86892e+21 1.90783e-05 -2.44506 -0.676161 -2.929 
0.00546875 0.0100312 1.96303 3.01838e+21 2.00722e-05 2.83497 2.73075 0.521311 
0.00546875 0.0102187 2.01386 2.86918e+21 1.90801e-05 -0.449905 3.14917 -4.94103 
0.00546875 0.0104062 2.01835 2.90193e+21 1.92979e-05 -0.688997 1.158 0.437867 
0.00546875 0.0120938 1.92639 2.75134e+21 1.82964e-05 0.199415 3.96854 1.09147 
0.00546875 0.0122813 2.00737 2.73535e+21 1.81901e-05 0.0566588 -0.496212 -2.41583 
0.00546875 0.0124688 2.01627 2.91847e+21 1.94078e-05 -1.75602 2.42087 -0.81732 
0.00546875 0.0126563 1.96604 3.03588e+21 2.01886e-05 -3.53574 -2.61134 -2.18443 
0.0185937 0.0216562 1.99253 2.40673e+21 1.60048e-05 -0.683431 0.95269 1.58949 
0.00546875 0.00178125 1.86696 2.60132e+21 1.72987e-05 -1.14128 19.9825 -5.75296 
0.00546875 0.00196875 1.86787 3.34775e+21 2.22626e-05 -1.08181 10.978 -3.00956 
0.00546875 0.00215625 2.12455 3.20484e+21 2.13122e-05 6.24242 -1.75472 0.563309 
0.0164062 0.00159375 2.01345 2.51507e+21 1.67252e-05 -0.0868833 -0.633132 1.16293 
0.00546875 0.00234375 1.8626 3.03367e+21 2.01739e-05 -4.53812 -0.134551 -1.73888 
0.00546875 0.00253125 2.1326 3.66111e+21 2.43464e-05 -0.805935 1.0913 11.517 
0.00546875 0.00271875 1.9383 2.71808e+21 1.80752e-05 1.52419 1.13569 -1.29071 
0.00546875 0.00290625 2.14824 3.24369e+21 2.15705e-05 -0.704196 11.9922 -2.08678 
0.00546875 0.00459375 1.89607 3.24341e+21 2.15687e-05 -2.24289 10.9046 -0.00797597 
0.00546875 0.00478125 2.02722 3.04938e+21 2.02784e-05 1.4677 6.08922 -1.94459 
0.00546875 0.00496875 1.9378 3.4247e+21 2.27742e-05 0.165447 1.33617 2.42714 
0.00546875 0.00515625 1.99703 2.99804e+21 1.99369e-05 2.91251 2.01488 -5.4883 
0.0120312 0.00459375 2.00686 2.50429e+21 1.66535e-05 -2.80478 -3.49403 1.62538 
0.0120312 0.00478125 2.02612 2.39355e+21 1.59171e-05 -1.75374 0.919498 -0.395465 
0.0120312 0.00496875 1.98859 2.47205e+21 1.64392e-05 1.73119 0.0933475 3.67915 
0.0120312 0.00515625 1.92578 2.58745e+21 1.72066e-05 2.84333 0.951638 2.6828 
0.00546875 0.00534375 1.92191 3.36377e+21 2.23691e-05 -3.05977 5.55944 -0.310181 
0.00546875 0.00553125 2.03727 3.45917e+21 2.30035e-05 -0.0239997 4.542 2.51663 
0.00546875 0.00571875 1.91079 2.92666e+21 1.94623e-05 -2.9008 7.86115 -4.09415 
0.00546875 0.00590625 1.89097 2.71202e+21 1.80349e-05 2.22923 7.45667 2.81403 
0.0120312 0.00534375 2.00406 2.52283e+21 1.67768e-05 3.68406 -0.387029 1.80171 
0.0120312 0.00553125 2.03753 2.41203e+21 1.604e-05 0.712263 0.617057 -1.72544 
0.00546875 0.00759375 1.87707 3.05093e+21 2.02887e-05 -4.26289 3.41981 -1.4207 
0.00546875 0.00778125 1.97014 3.27002e+21 2.17456e-05 0.267662 4.23329 -1.67661 
0.00546875 0.00796875 1.98066 3.22315e+21 2.1434e-05 2.33399 -0.423753 0.20369 
0.00546875 0.00815625 1.83291 3.02172e+21 2.00945e-05 -1.833 0.489685 -0.0971606 
0.0120312 0.00759375 2.05571 2.4986e+21 1.66157e-05 1.08044 3.61334 1.11386 
0.0120312 0.00796875 2.04017 2.4111e+21 1.60338e-05 -1.42805 -2.04405 0.59164 
0.00546875 0.00834375 1.9684 2.97297e+21 1.97702e-05 -3.82135 7.21902 1.59124 
0.00546875 0.00853125 2.00243 2.92167e+21 1.94291e-05 -1.63451 0.572564 1.97721 
0.00546875 0.00871875 2.08097 3.00545e+21 1.99862e-05 -0.190819 2.86626 4.21412 
0.00546875 0.00890625 1.90741 3.04085e+21 2.02216e-05 0.1956 3.68244 -0.377229 
0.00546875 0.0105937 1.97226 2.72237e+21 1.81038e-05 0.863176 -1.28773 0.58191 
0.00546875 0.0107812 1.91978 2.67503e+21 1.77889e-05 1.44111 -1.66387 8.51261 
0.00546875 0.0109687 2.09771 2.76768e+21 1.84051e-05 -1.48503 0.588792 4.37139 
0.00546875 0.0111562 2.04979 2.98612e+21 1.98577e-05 -1.83818 1.26465 -0.101545 
0.00546875 0.0113437 1.97526 2.69732e+21 1.79372e-05 2.272 5.45254 -2.0522 
0.00546875 0.0115312 2.0141 2.89941e+21 1.9281e-05 -1.01582 1.8424 -1.17054 
0.00546875 0.0119063 2.02619 2.94564e+21 1.95885e-05 -2.67442 -0.879974 0.303259 
0.0404687 0.00159375 1.98613 2.3203e+21 1.543e-05 0.266282 0.817971 1.45757 
0.0426562 0.00159375 1.99373 2.35925e+21 1.5689e-05 -2.71207 3.80625 1.09429 
0.0514062 0.00196875 1.99897 2.44795e+21 1.62788e-05 5.80973 0.265549 1.58046 
0.0196875 0.0001875 1.94839 2.47308e+21 1.6446e-05 2.95048 4.45126 5.15185 
0.0240625 0.0001875 2.00402 2.58173e+21 1.71685e-05 3.93038 -0.93106 -1.51976 
0.0120312 0.00346875 1.98223 2.29161e+21 1.52392e-05 0.876825 0.714197 3.17448 
0.0120312 0.00365625 1.93456 2.28334e+21 1.51842e-05 4.57479 0.661339 -3.82985 
0.0229687 0.00121875 2.00545 2.64898e+21 1.76158e-05 4.85722 2.37571 1.28315 
0.0251562 0.00121875 1.88844 2.528e+21 1.68112e-05 3.87949 -2.24357 1.16562 
0.0229687 0.00140625 1.97179 2.53861e+21 1.68818e-05 3.00313 -1.39872 0.0373372 
0.0120312 0.00271875 1.80668 2.37281e+21 1.57792e-05 -0.121521 4.23716 1.63917 
0.00984375 0.00290625 1.98326 3.77069e+21 2.50751e-05 0.814032 13.4118 -0.464279 
0.0120312 0.00290625 2.02987 2.24722e+21 1.4944e-05 3.15353 1.25264 -7.27076 
0.0120312 0.00571875 1.98052 2.51106e+21 1.66986e-05 1.70458 -1.52887 -1.8661 
0.0120312 0.00590625 1.86535 2.38062e+21 1.58311e-05 -2.77957 0.457488 0.925743 
0.0207812 0.00159375 2.0625 2.46638e+21 1.64014e-05 3.63208 -4.49138 0.602237 
0.0185937 0.00178125 2.02276 2.49432e+21 1.65872e-05 2.67123 0.808748 1.06583 
0.0207812 0.00178125 1.99012 2.43114e+21 1.61671e-05 1.52665 1.84473 1.84738 
0.0229687 0.00159375 2.03304 2.39334e+21 1.59157e-05 2.51152 0.616792 0.310477 
0.0360937 0.00159375 2.04315 2.54673e+21 1.69357e-05 0.933516 -1.44512 -1.00394 
0.00273437 0.000984375 1.70227 1.29451e+22 8.60852e-05 40.0201 9.6276 3.41178 
0.00382812 0.000984375 1.94214 1.33553e+22 8.88127e-05 27.9951 0.833309 0.104559 
0.00273437 0.00107813 2.14681 1.50854e+22 0.000100318 36.0661 -12.4783 14.2719 
0.00382812 0.00107813 1.84575 1.35041e+22 8.9802e-05 27.8515 -0.774362 2.39149 
0.00492187 0.000796875 1.89506 1.15309e+22 7.66803e-05 41.6165 -2.54865 4.67806 
0.00601562 0.000796875 1.85195 8.84294e+21 5.88055e-05 42.2273 -1.93829 -1.81996 
0.00492187 0.000890625 1.93798 1.15545e+22 7.68371e-05 38.4199 -0.333047 -2.80521 
0.00601562 0.000890625 1.65256 8.62663e+21 5.73671e-05 44.6702 0.439434 1.28234 
0.00492187 0.000984375 1.82526 1.12267e+22 7.46572e-05 36.5962 -0.347456 1.34705 
0.00601562 0.000984375 1.77378 8.51459e+21 5.66221e-05 45.172 4.16217 -1.20573 
0.00492187 0.00107813 1.902 1.10422e+22 7.34309e-05 34.2132 -2.61669 -4.61761 
0.00601562 0.00107813 1.89829 7.7742e+21 5.16984e-05 43.0102 0.325241 2.51247 
0.00273437 0.00117188 1.96754 1.63109e+22 0.000108467 25.1565 3.21378 14.5895 
0.00382812 0.00117188 1.99528 1.31655e+22 8.75503e-05 26.6299 -1.25463 -1.36351 
0.00273437 0.00126563 2.31219 1.61625e+22 0.000107481 11.6793 9.78149 -9.36564 
0.00273437 0.00135937 1.90503 1.6898e+22 0.000112372 20.5536 -4.96925 -3.26875 
0.00273437 0.00145312 1.99216 1.77694e+22 0.000118166 29.1196 0.942856 -7.80142 
0.00492187 0.00117188 1.99377 1.02251e+22 6.79968e-05 33.6296 0.245323 -0.409903 
0.00601562 0.00117188 1.96554 8.42377e+21 5.60181e-05 42.4393 -0.0939407 -1.80782 
0.00492187 0.00126563 1.96825 1.05469e+22 7.01368e-05 26.7311 2.10991 -3.47487 
0.00601562 0.00126563 1.83038 7.91016e+21 5.26026e-05 36.4431 1.92001 -0.589403 
0.00601562 0.00135937 1.86537 8.19815e+21 5.45177e-05 31.5588 1.51983 -1.15902 
0.00492187 0.00145312 1.96321 1.04998e+22 6.98237e-05 14.1613 -0.934979 -4.14424 
0.00601562 0.00145312 2.00808 7.85082e+21 5.2208e-05 27.8321 6.67779 -1.68206 
0.00710937 0.00135937 1.71221 4.13333e+21 2.74866e-05 35.3088 18.4954 -1.5623 
0.00820312 0.00135937 1.98639 4.33885e+21 2.88534e-05 21.376 14.7121 0.173734 
0.00710937 0.00145312 1.83793 4.79594e+21 3.1893e-05 37.1414 18.0242 5.92288 
0.00820312 0.00145312 1.87819 4.43278e+21 2.9478e-05 14.2594 16.4108 8.04166 
0.00710937 0.00323438 1.99931 3.31603e+21 2.20516e-05 -3.83023 11.3632 -4.65518 
0.00820312 0.00323438 2.01651 3.4456e+21 2.29132e-05 -4.02189 15.9816 -0.74752 
0.00710937 0.00332813 1.92439 3.36253e+21 2.23608e-05 -0.218209 9.16855 -2.63286 
0.00820312 0.00332813 1.94593 3.43249e+21 2.2826e-05 -3.71336 17.7726 1.55295 
0.00710937 0.00342187 1.96642 3.39741e+21 2.25928e-05 -5.66978 9.09848 2.89449 
0.00820312 0.00342187 1.92046 3.32937e+21 2.21403e-05 -0.435483 11.7359 -0.239561 
0.00710937 0.00351562 2.03629 3.29357e+21 2.19022e-05 2.87755 4.85589 0.880823 
0.00820312 0.00351562 1.92401 3.47017e+21 2.30766e-05 -2.69817 11.0253 0.0825152 
0.00710937 0.00360937 2.02749 3.41444e+21 2.2706e-05 2.0663 10.2445 -1.02521 
0.00710937 0.00370312 2.01755 3.5711e+21 2.37478e-05 -1.38792 5.00916 1.92591 
0.00820312 0.00370312 2.05026 3.43278e+21 2.2828e-05 0.458851 13.9468 -1.55441 
0.00710937 0.00379687 1.95946 3.254e+21 2.16391e-05 -4.97916 9.14194 2.39978 
0.00820312 0.00379687 1.99254 3.48292e+21 2.31614e-05 -5.15571 11.799 -1.65727 
0.00710937 0.00389062 2.04152 3.26336e+21 2.17013e-05 -2.41236 10.4575 2.53921 
0.00820312 0.00389062 1.94174 3.54262e+21 2.35584e-05 -1.36607 13.6357 -1.7574 
0.00710937 0.00398438 1.9134 3.42031e+21 2.2745e-05 4.38705 8.93476 4.46243 
0.00710937 0.00407813 1.98786 3.43683e+21 2.28549e-05 1.88034 7.29129 -5.1629 
0.00820312 0.00407813 1.98185 3.47108e+21 2.30827e-05 2.42985 9.05064 1.25348 
0.00710937 0.00417188 1.95037 3.37076e+21 2.24155e-05 -0.732528 8.88817 3.91108 
0.00820312 0.00417188 2.04011 3.34472e+21 2.22424e-05 1.02813 11.4958 -1.04522 
0.00710937 0.00426563 1.91238 3.45314e+21 2.29634e-05 -2.3316 8.0728 1.0323 
0.00710937 0.00445313 1.96924 3.28683e+21 2.18574e-05 -0.221796 5.30475 0.136216 
0.00820312 0.00445313 2.07933 3.27289e+21 2.17647e-05 0.198867 9.61783 -0.0147173 
0.0147656 0.00604688 1.97872 2.38973e+21 1.58917e-05 1.13749 -1.733 -1.1795 
0.0147656 0.00614063 1.95138 2.4215e+21 1.61029e-05 2.14157 -2.09219 -2.68347 
0.0158594 0.00604688 1.95085 2.48984e+21 1.65574e-05 -1.49059 -3.99598 0.155875 
0.0169531 0.00604688 2.02397 2.58481e+21 1.7189e-05 0.215394 -1.0284 -1.05454 
0.0158594 0.00614063 2.03397 2.44172e+21 1.62374e-05 -0.310677 -3.01264 5.35435 
0.0169531 0.00614063 2.01669 2.46952e+21 1.64223e-05 -0.489565 0.267692 -0.202689 
0.0158594 0.00623438 2.11265 2.51205e+21 1.67052e-05 0.254157 -1.89131 -2.22683 
0.0169531 0.00623438 1.95592 2.29794e+21 1.52813e-05 -3.51191 -1.78048 1.22364 
0.0147656 0.00642188 1.84125 2.56923e+21 1.70853e-05 1.09952 -3.02886 2.19712 
0.0136719 0.00670313 2.00172 2.35723e+21 1.56756e-05 -0.585447 2.43665 2.12085 
0.0103906 0.00679687 0 0 0 0 0 0 
0.00929687 0.00689062 2.03895 3.17124e+21 2.10888e-05 -4.43225 6.10016 -0.204973 
0.0103906 0.00689062 0 0 0 0 0 0 
0.0158594 0.00698437 1.99199 2.50009e+21 1.66256e-05 3.22588 1.4306 -2.64526 
0.0147656 0.00717187 1.93324 2.32219e+21 1.54426e-05 3.00232 -1.91146 -4.60214 
0.0103906 0.00904687 0 0 0 0 0 0 
0.0103906 0.00914062 0 0 0 0 0 0 
0.0103906 0.00942187 0 0 0 0 0 0 
0.0103906 0.00951562 1.95007 2.74373e+21 1.82458e-05 -1.5072 4.21933 1.37131 
0.0114844 0.0127031 1.99177 2.63917e+21 1.75505e-05 -0.622709 2.50556 1.07583 
0.0125781 0.0127031 1.97789 2.47389e+21 1.64514e-05 3.58333 1.40008 3.41982 
0.0136719 0.0127031 2.00531 2.61556e+21 1.73935e-05 3.00114 0.292583 0.113926 
0.0147656 0.0127031 1.9662 2.45553e+21 1.63293e-05 -0.507638 -2.20832 1.84241 
0.0158594 0.0127031 1.98724 2.52374e+21 1.67828e-05 0.330783 1.28162 0.937862 
0.0169531 0.0127031 2.03939 2.64179e+21 1.75679e-05 4.06857 3.79065 -0.649544 
0.0202344 0.00417188 1.95366 2.7606e+21 1.8358e-05 1.75047 -3.05748 3.21345 
0.0213281 0.00417188 2.05056 2.38111e+21 1.58344e-05 -3.41453 -2.62105 0.801997 
0.0202344 0.00426563 1.90865 2.40883e+21 1.60187e-05 3.0056 0.0756219 1.19232 
0.0213281 0.00426563 2.09322 2.42702e+21 1.61397e-05 1.15744 -0.610975 -1.72799 
0.0191406 0.00435938 1.91906 2.46028e+21 1.63609e-05 8.73995 0.83256 -1.26071 
0.0180469 0.00445313 1.94779 2.51305e+21 1.67118e-05 1.92299 1.01594 0.116791 
0.0191406 0.00445313 1.97404 2.46077e+21 1.63641e-05 4.01937 -0.938169 1.02576 
0.0224219 0.00417188 2.1302 2.33646e+21 1.55375e-05 2.7487 -3.13923 1.03689 
0.0235156 0.00417188 2.08757 2.37739e+21 1.58096e-05 3.39338 0.0290964 -0.181148 
0.0224219 0.00426563 1.96612 2.55074e+21 1.69624e-05 0.154969 -2.83894 2.5399 
0.0235156 0.00426563 2.11928 2.35789e+21 1.568e-05 4.58602 -2.45827 0.110597 
0.0246094 0.00417188 1.88771 2.62666e+21 1.74673e-05 4.20368 5.18198 2.24973 
0.0257031 0.00417188 1.97146 2.41459e+21 1.60571e-05 1.93233 3.37863 -3.55312 
0.0246094 0.00426563 2.03314 2.51799e+21 1.67446e-05 2.45381 0.93504 -0.405758 
0.0257031 0.00426563 1.94558 2.37244e+21 1.57767e-05 0.80847 0.949637 -0.163235 
0.0311719 0.00398438 2.05598 2.4581e+21 1.63464e-05 0.753927 1.1199 -2.97664 
0.0322656 0.00398438 1.98542 2.4581e+21 1.63464e-05 7.77841 -0.00263741 -1.15921 
0.0311719 0.00407813 1.95171 2.38256e+21 1.58441e-05 1.19075 0.346274 1.22032 
0.0322656 0.00407813 1.92313 2.43585e+21 1.61984e-05 5.71561 1.28467 -2.55256 
0.0267969 0.00417188 2.06625 2.39227e+21 1.59086e-05 1.83736 0.90924 -0.127517 
0.0278906 0.00417188 1.94091 2.57458e+21 1.71209e-05 0.799455 1.08597 -3.25218 
0.0267969 0.00426563 1.99689 2.52891e+21 1.68172e-05 3.51223 0.623642 1.91882 
0.0278906 0.00426563 2.14068 2.53255e+21 1.68414e-05 0.197685 1.49711 -7.67176 
0.0289844 0.00417188 1.97843 2.48156e+21 1.65024e-05 -1.1055 -0.700789 0.462039 
0.0300781 0.00417188 1.98851 2.46668e+21 1.64034e-05 0.455008 0.404733 -1.01888 
0.0289844 0.00426563 2.06258 2.45977e+21 1.63575e-05 5.69755 4.9732 -1.02574 
0.0300781 0.00426563 1.94574 2.44158e+21 1.62365e-05 1.22994 -4.3298 -0.598486 
0.0289844 0.00435938 2.01077 2.52437e+21 1.67871e-05 -0.737105 0.0549624 -1.73626 
0.0300781 0.00435938 1.9518 2.43892e+21 1.62188e-05 3.22142 3.60086 -1.64044 
0.0289844 0.00445313 2.00225 2.53396e+21 1.68509e-05 -0.162636 0.458444 -0.405596 
0.0300781 0.00445313 1.92403 2.4294e+21 1.61555e-05 5.86228 0.0972884 -2.82485 
0.0213281 0.00614063 1.98916 2.53524e+21 1.68593e-05 2.86244 -0.835017 0.648856 
0.0180469 0.00623438 1.97624 2.33031e+21 1.54966e-05 4.72124 2.01669 1.11344 
0.0191406 0.00623438 2.02426 2.48467e+21 1.6523e-05 -1.81418 0.483227 -2.10159 
0.0191406 0.00632813 2.03213 2.49201e+21 1.65719e-05 1.88999 1.88028 -0.73807 
0.0202344 0.00623438 2.0273 2.28301e+21 1.5182e-05 1.19805 0.761382 3.92335 
0.0213281 0.00632813 2.01706 2.41597e+21 1.60662e-05 4.11668 -1.96861 -2.01239 
0.0235156 0.00623438 1.91698 2.33031e+21 1.54966e-05 4.25193 0.26113 -4.67493 
0.0213281 0.00642188 1.92725 2.56197e+21 1.70371e-05 -3.42997 -1.16295 3.28415 
0.0202344 0.00651563 2.04458 2.57514e+21 1.71247e-05 6.82941 -0.591869 -1.02018 
0.0191406 0.00660938 1.98643 2.59967e+21 1.72878e-05 -1.25339 -0.711586 -0.0168915 
0.0191406 0.00670313 1.97973 2.46837e+21 1.64147e-05 2.36069 -2.18251 1.47118 
0.0213281 0.00660938 2.0038 2.46346e+21 1.6382e-05 5.20633 1.30751 -0.228163 
0.0202344 0.00670313 1.95271 2.53089e+21 1.68304e-05 4.61763 -0.592048 1.5865 
0.0224219 0.00642188 2.00206 2.54506e+21 1.69246e-05 5.28433 -4.20279 -1.98893 
0.0235156 0.00642188 1.96466 2.36378e+21 1.57192e-05 3.01735 -0.0228941 0.396293 
0.0224219 0.00660938 1.87923 2.39536e+21 1.59291e-05 0.117079 -1.54154 0.393638 
0.0224219 0.00670313 1.96813 2.45679e+21 1.63377e-05 4.27456 -2.72428 0.0656548 
0.0246094 0.00660938 1.92146 2.48225e+21 1.6507e-05 -1.07443 0.856951 0.435539 
0.0257031 0.00660938 2.01856 2.51278e+21 1.671e-05 2.98149 4.88257 -0.979657 
0.0257031 0.00670313 2.00323 2.54942e+21 1.69536e-05 5.06879 0.845184 -2.51215 
0.0267969 0.00604688 1.99176 2.35123e+21 1.56357e-05 1.40467 -1.56056 -0.000737538 
0.0278906 0.00604688 1.97438 2.4539e+21 1.63185e-05 3.84863 -1.86791 6.18909 
0.0267969 0.00614063 2.02865 2.42908e+21 1.61534e-05 1.73126 -0.415503 4.00353 
0.0289844 0.00623438 2.0406 2.46973e+21 1.64237e-05 0.43481 0.3056 0.869275 
0.0300781 0.00623438 1.88425 2.62907e+21 1.74833e-05 2.25298 -0.0710324 0.685832 
0.0289844 0.00632813 2.00854 2.38409e+21 1.58542e-05 5.30009 1.75821 3.276 
0.0311719 0.00604688 1.93592 2.42567e+21 1.61307e-05 4.50996 3.65552 -2.37854 
0.0322656 0.00604688 1.9536 2.3692e+21 1.57552e-05 2.70826 0.306422 2.1842 
0.0322656 0.00614063 2.07995 2.50491e+21 1.66576e-05 0.353992 1.56224 0.0741938 
0.0311719 0.00623438 1.99982 2.41994e+21 1.60926e-05 1.61794 0.494161 3.51689 
0.0311719 0.00632813 2.17255 2.53861e+21 1.68818e-05 2.96969 -0.628748 0.555458 
0.0267969 0.00642188 1.99915 2.38795e+21 1.58799e-05 2.84899 -1.29176 -1.24573 
0.0322656 0.00651563 1.96065 2.40124e+21 1.59682e-05 -0.698461 -3.20152 0.824161 
0.0311719 0.00660938 1.97285 2.44233e+21 1.62415e-05 4.12208 -2.22147 1.61973 
0.0322656 0.00660938 1.96291 2.59967e+21 1.72878e-05 1.77982 0.402069 0.214293 
0.0322656 0.00670313 2.0041 2.43364e+21 1.61837e-05 -0.771646 0.26869 2.51539 
0.0344531 0.00660938 1.97308 2.4799e+21 1.64913e-05 2.67414 3.3011 -0.836244 
0.0344531 0.00670313 1.9976 2.3827e+21 1.58449e-05 0.812238 0.598097 3.92205 
0.0213281 0.00679687 2.04082 2.42748e+21 1.61427e-05 -0.0618607 0.334467 2.2395 
0.0202344 0.00698437 1.98807 2.51565e+21 1.67291e-05 1.28698 1.77868 -1.05236 
0.0213281 0.00698437 2.04151 2.53787e+21 1.68768e-05 1.6621 1.27166 0.412423 
0.0224219 0.00679687 2.0302 2.44574e+21 1.62642e-05 0.533757 -0.495341 -2.66166 
0.0235156 0.00679687 2.00183 2.3955e+21 1.59301e-05 1.37306 0.0518086 2.3713 
0.0224219 0.00689062 2.03648 2.47554e+21 1.64623e-05 2.88547 -1.91273 0.00569418 
0.0246094 0.00698437 1.96212 2.44453e+21 1.62561e-05 4.84166 -2.88862 -0.319871 
0.0191406 0.00717187 2.00024 2.54727e+21 1.69393e-05 0.503025 -3.91386 1.20815 
0.0180469 0.00745312 1.87023 2.50529e+21 1.66602e-05 1.64823 -2.63031 -0.693163 
0.0235156 0.00717187 1.91983 2.35898e+21 1.56872e-05 3.38418 -1.92147 -1.04966 
0.0257031 0.00726562 2.01313 2.40118e+21 1.59678e-05 3.05545 -3.25248 0.956618 
0.0267969 0.00689062 1.91266 2.53861e+21 1.68818e-05 -0.978682 -1.03075 -4.18999 
0.0289844 0.00679687 2.03117 2.55764e+21 1.70083e-05 -0.423056 0.349571 0.134221 
0.0278906 0.00698437 2.02601 2.37564e+21 1.5798e-05 2.20122 -0.129565 2.3998 
0.0267969 0.00707812 1.96599 2.42531e+21 1.61283e-05 4.39581 -1.91328 -4.59106 
0.0289844 0.00698437 1.94642 2.36231e+21 1.57093e-05 0.390746 -0.0822535 2.05442 
0.0311719 0.00689062 1.96103 2.50032e+21 1.66271e-05 0.68299 0.101151 2.02132 
0.0333594 0.00679687 1.95283 2.55536e+21 1.69931e-05 1.5442 -0.514816 -1.43493 
0.0333594 0.00689062 1.98302 2.54086e+21 1.68967e-05 1.89722 2.38042 0.507967 
0.0311719 0.00698437 1.97419 2.43787e+21 1.62118e-05 0.800026 0.343308 0.317965 
0.0322656 0.00698437 1.99714 2.55787e+21 1.70098e-05 0.230777 4.36157 1.07974 
0.0344531 0.00698437 2.06621 2.5712e+21 1.70985e-05 1.93936 -1.49417 0.962749 
0.0344531 0.00707812 2.00247 2.42531e+21 1.61283e-05 1.18931 0.654749 1.90929 
0.0278906 0.00717187 1.97158 2.45637e+21 1.63349e-05 5.04797 0.660783 -1.53685 
0.0267969 0.00735937 1.93135 2.25459e+21 1.4993e-05 3.25111 2.00978 -3.27208 
0.0311719 0.00717187 2.05741 2.42391e+21 1.6119e-05 2.47341 -0.986428 0.316768 
0.0311719 0.00726562 2.04587 2.367e+21 1.57405e-05 2.77243 2.41255 0.00923109 
0.0180469 0.0182344 0 0 0 0 0 0 
0.0180469 0.0183281 0 0 0 0 0 0 
0.0180469 0.0193594 0 0 0 0 0 0 
0.0180469 0.0194531 0 0 0 0 0 0 
0.0180469 0.0212344 0 0 0 0 0 0 
0.0180469 0.0213281 0 0 0 0 0 0 
0.0180469 0.0214219 0 0 0 0 0 0 
0.0180469 0.0215156 0 0 0 0 0 0 
0.00601562 0.00154688 2.084 7.57612e+21 5.03812e-05 18.1335 -1.49072 4.32133 
0.00492187 0.00164063 0 0 0 0 0 0 
0.00601562 0.00164063 1.55897 3.06776e+21 2.04006e-05 9.03334 25.921 1.34277 
0.00710937 0.00229688 1.88503 3.43287e+21 2.28286e-05 3.30327 18.764 3.31013 
0.00820312 0.00229688 2.05331 3.62208e+21 2.40868e-05 2.98553 17.9295 -0.163928 
0.00710937 0.00239063 1.88639 3.40862e+21 2.26673e-05 0.541487 7.39125 0.938571 
0.00820312 0.00239063 1.87265 3.80467e+21 2.53011e-05 3.54644 20.4759 2.21132 
0.00710937 0.00267187 1.91463 3.46808e+21 2.30627e-05 -1.08264 9.48276 1.81457 
0.00820312 0.00267187 1.99321 3.927e+21 2.61146e-05 -0.164514 13.1932 -0.586439 
0.00710937 0.00276562 1.96747 3.4347e+21 2.28408e-05 4.62407 8.75773 -0.899711 
0.00820312 0.00276562 2.0175 3.81072e+21 2.53413e-05 -1.9121 16.4841 -0.983447 
0.00710937 0.00285937 2.07768 3.44694e+21 2.29221e-05 -0.752722 11.6577 -1.41631 
0.00820312 0.00285937 1.96152 3.86491e+21 2.57017e-05 -0.0247846 15.8901 -1.13125 
0.00710937 0.00295313 2.01075 3.36905e+21 2.24042e-05 -1.88199 7.55145 -2.35299 
0.00820312 0.00295313 2.00126 3.73171e+21 2.48158e-05 -5.72975 12.6967 2.02504 
0.00820312 0.00454687 2.03623 3.43754e+21 2.28596e-05 -3.78001 11.5215 1.09161 
0.00820312 0.00464062 1.97632 3.31123e+21 2.20197e-05 0.824776 11.7006 -1.98598 
0.00710937 0.00473437 2.01934 3.32107e+21 2.20851e-05 -0.136836 11.4752 -2.14757 
0.00710937 0.00482812 2.04222 3.33052e+21 2.2148e-05 -1.61622 8.06391 1.99277 
0.0136719 0.00510937 1.89502 2.51836e+21 1.67471e-05 -2.09363 -2.58938 2.48839 
0.0147656 0.00510937 1.92215 2.4333e+21 1.61814e-05 -0.879894 -0.437186 4.27157 
0.0147656 0.00520312 1.9984 2.49983e+21 1.66239e-05 0.365245 -3.13546 1.91218 
0.00820312 0.00529687 1.97252 3.31709e+21 2.20587e-05 -0.178908 11.011 0.00600408 
0.0158594 0.00548437 2.12059 2.5754e+21 1.71264e-05 3.52621 -0.912938 3.28004 
0.0169531 0.00548437 2.00551 2.51031e+21 1.66936e-05 5.51626 1.33063 0.362308 
0.0169531 0.00557812 1.96979 2.42916e+21 1.61539e-05 -0.364216 -0.246768 -2.69381 
0.0136719 0.00567187 2.00253 2.50942e+21 1.66876e-05 0.542008 -3.06707 3.17218 
0.0147656 0.00567187 1.93324 2.48206e+21 1.65057e-05 3.17038 1.47481 0.481087 
0.0136719 0.00576562 2.04318 2.51977e+21 1.67564e-05 -1.49259 3.3329 2.61939 
0.0158594 0.00576562 2.05023 2.55476e+21 1.69892e-05 0.736285 -0.576905 6.48431 
0.0169531 0.00576562 1.96146 2.45246e+21 1.63089e-05 0.203174 -1.36667 3.50307 
0.0158594 0.00595313 2.09804 2.57337e+21 1.71129e-05 3.96772 -0.124742 -0.0837918 
0.0169531 0.00595313 1.97493 2.53687e+21 1.68702e-05 0.84644 1.24052 1.96789 
0.0136719 0.00754687 2.05229 2.5441e+21 1.69182e-05 -0.241618 -0.903032 2.39364 
0.0169531 0.00764062 2.07613 2.64086e+21 1.75617e-05 2.08956 1.98885 0.89712 
0.0103906 0.00867188 0 0 0 0 0 0 
0.0103906 0.00876563 0 0 0 0 0 0 
0.0202344 0.00454687 2.01424 2.51244e+21 1.67077e-05 1.9237 -4.85377 -5.75063 
0.0213281 0.00454687 1.9696 2.47148e+21 1.64353e-05 -3.32413 1.33318 -1.907 
0.0202344 0.00464062 1.9934 2.53861e+21 1.68818e-05 6.06466 2.70911 2.47952 
0.0213281 0.00464062 1.99633 2.31452e+21 1.53915e-05 1.72471 -2.90888 4.45498 
0.0246094 0.00454687 2.02223 2.47148e+21 1.64353e-05 1.53394 -4.59013 -1.57509 
0.0257031 0.00454687 2.00816 2.51585e+21 1.67304e-05 -0.231913 -1.94827 0.659463 
0.0246094 0.00464062 1.99362 2.5152e+21 1.67261e-05 4.06124 -0.0126672 2.66073 
0.0267969 0.00473437 1.93762 2.61292e+21 1.73759e-05 -0.0945791 0.169627 -2.36491 
0.0278906 0.00473437 1.95309 2.41949e+21 1.60896e-05 1.51275 0.606719 -0.588059 
0.0267969 0.00482812 2.0735 2.41752e+21 1.60765e-05 0.792628 -3.19732 1.41292 
0.0278906 0.00482812 2.01322 2.47539e+21 1.64613e-05 0.645168 -1.01895 0.341146 
0.0311719 0.00454687 1.92034 2.46806e+21 1.64126e-05 2.02488 1.4692 -0.764373 
0.0322656 0.00454687 1.84493 2.33493e+21 1.55273e-05 -2.31552 4.35597 2.61737 
0.0311719 0.00464062 2.0284 2.4483e+21 1.62812e-05 1.55419 -1.61287 -0.280882 
0.0322656 0.00464062 2.15808 2.55199e+21 1.69707e-05 -2.16169 1.33714 -3.04671 
0.0333594 0.00454687 1.92104 2.42027e+21 1.60948e-05 4.13553 4.98254 -1.40709 
0.0344531 0.00454687 2.01651 2.43051e+21 1.61629e-05 3.13424 2.01519 -1.08439 
0.0333594 0.00464062 1.95889 2.43827e+21 1.62145e-05 5.88505 2.17097 -3.40337 
0.0344531 0.00464062 1.98789 2.35465e+21 1.56584e-05 -0.161941 -2.26627 -2.03287 
0.0289844 0.00510937 2.03869 2.42419e+21 1.61208e-05 4.55865 -0.951015 -0.224411 
0.0300781 0.00510937 1.99116 2.60646e+21 1.73329e-05 2.87431 -0.853254 0.404103 
0.0289844 0.00520312 2.01556 2.37454e+21 1.57907e-05 0.165132 3.18874 -2.54325 