ITEM: TIMESTEP
500000
ITEM: NUMBER OF CELLS
43037
ITEM: BOX BOUNDS oo ao pp
0 0.35
0 0.03
-0.1 0.1
ITEM: CELLS xc yc f_out[1] f_out[2] f_out[3] f_out[4] f_out[5] f_out[6] 
0.00875 0.01575 0 0 0 0 0 0 
0.00875 0.01875 0 0 0 0 0 0 
0.00875 0.02175 0 0 0 0 0 0 
0.00875 0.02475 0 0 0 0 0 0 
0.00875 0.02775 0 0 0 0 0 0 
0.02625 0.02475 0 0 0 0 0 0 
0.02625 0.02775 0 0 0 0 0 0 
0.00875 0.01425 0 0 0 0 0 0 
0.00875 0.01725 0 0 0 0 0 0 
0.00875 0.02025 0 0 0 0 0 0 
0.00875 0.02325 0 0 0 0 0 0 
0.00875 0.02625 0 0 0 0 0 0 
0.00875 0.02925 0 0 0 0 0 0 
0.02625 0.02325 0 0 0 0 0 0 
0.02625 0.02625 0 0 0 0 0 0 
0.02625 0.02925 0 0 0 0 0 0 
0.04375 0.02325 0 0 0 0 0 0 
0.04375 0.02625 0 0 0 0 0 0 
0.04375 0.02925 0 0 0 0 0 0 
0.004375 0.013125 0 0 0 0 0 0 
0.013125 0.013125 0 0 0 0 0 0 
0.021875 0.022125 0 0 0 0 0 0 
0.030625 0.022125 0 0 0 0 0 0 
0.0021875 0.0001875 1.9615 1.33539e+22 8.88036e-05 30.6268 -0.954528 -6.06864 
0.0021875 0.0031875 0 0 0 0 0 0 
0.0021875 0.0035625 0 0 0 0 0 0 
0.0021875 0.0039375 0 0 0 0 0 0 
0.0021875 0.0043125 0 0 0 0 0 0 
0.0021875 0.0061875 0 0 0 0 0 0 
0.0021875 0.0065625 0 0 0 0 0 0 
0.0021875 0.0069375 0 0 0 0 0 0 
0.0021875 0.0073125 0 0 0 0 0 0 
0.0021875 0.0091875 0 0 0 0 0 0 
0.0021875 0.0095625 0 0 0 0 0 0 
0.0021875 0.0099375 0 0 0 0 0 0 
0.0021875 0.0103125 0 0 0 0 0 0 
0.0021875 0.0121875 0 0 0 0 0 0 
0.0021875 0.0125625 0 0 0 0 0 0 
0.0021875 0.0020625 0 0 0 0 0 0 
0.0021875 0.0024375 0 0 0 0 0 0 
0.0021875 0.0028125 0 0 0 0 0 0 
0.0021875 0.0046875 0 0 0 0 0 0 
0.0021875 0.0050625 0 0 0 0 0 0 
0.0021875 0.0054375 0 0 0 0 0 0 
0.0021875 0.0058125 0 0 0 0 0 0 
0.0021875 0.0076875 0 0 0 0 0 0 
0.0021875 0.0080625 0 0 0 0 0 0 
0.0021875 0.0084375 0 0 0 0 0 0 
0.0021875 0.0088125 0 0 0 0 0 0 
0.0021875 0.0106875 0 0 0 0 0 0 
0.0021875 0.0110625 0 0 0 0 0 0 
0.0021875 0.0114375 0 0 0 0 0 0 
0.0021875 0.0118125 0 0 0 0 0 0 
0.00109375 0.00046875 0 0 0 0 0 0 
0.00328125 0.00046875 1.97135 1.31077e+22 8.71661e-05 29.2348 -2.04253 3.24294 
0.00109375 0.00065625 0 0 0 0 0 0 
0.00765625 0.00046875 1.7794 5.35592e+21 3.56168e-05 47.5877 7.35557 -0.397005 
0.00765625 0.00065625 1.8668 5.32753e+21 3.54281e-05 42.3816 5.54609 -0.389716 
0.00109375 0.00084375 0 0 0 0 0 0 
0.00109375 0.00103125 0 0 0 0 0 0 
0.00765625 0.00084375 1.88775 5.14621e+21 3.42223e-05 42.9815 11.2353 -0.862986 
0.00109375 0.00121875 0 0 0 0 0 0 
0.00109375 0.00140625 0 0 0 0 0 0 
0.00546875 0.00309375 1.86918 3.60229e+21 2.39552e-05 1.12781 -2.77521 -0.659548 
0.00546875 0.00328125 1.9497 3.67644e+21 2.44483e-05 -4.62275 3.23108 2.6669 
0.00546875 0.00346875 2.09098 3.35104e+21 2.22844e-05 -7.55561 3.03429 -2.15474 
0.00546875 0.00365625 2.01746 3.24474e+21 2.15776e-05 -1.08986 2.60504 3.98649 
0.0120312 0.00309375 2.11872 2.73077e+21 1.81596e-05 1.75704 -0.562989 -0.122851 
0.0120312 0.00328125 1.99236 2.45908e+21 1.63529e-05 -1.55593 0.882216 0.0569062 
0.00546875 0.00384375 2.0781 3.36705e+21 2.23909e-05 0.122567 13.1434 -0.899106 
0.00546875 0.00403125 1.99032 3.15099e+21 2.09541e-05 -1.72565 4.57475 -3.64935 
0.00546875 0.00421875 1.95977 3.26659e+21 2.17229e-05 1.63289 1.009 -7.50008 
0.00546875 0.00440625 2.08624 3.66245e+21 2.43553e-05 -5.62372 4.93001 -1.01643 
0.0120312 0.00384375 1.94776 2.47852e+21 1.64822e-05 1.18021 0.988639 2.85463 
0.0120312 0.00403125 2.05697 2.63574e+21 1.75276e-05 -0.351453 -1.37863 3.54188 
0.00546875 0.00609375 2.03097 3.38896e+21 2.25366e-05 1.19608 9.53112 -4.79998 
0.00546875 0.00628125 2.05293 3.00798e+21 2.00031e-05 -2.49984 0.705626 -2.11852 
0.00546875 0.00646875 2.0656 3.30982e+21 2.20103e-05 4.93731 4.69204 -0.0413554 
0.00546875 0.00665625 1.89527 3.16858e+21 2.1071e-05 0.0702138 3.44419 1.65502 
0.0120312 0.00609375 1.96777 2.54008e+21 1.68915e-05 -0.669748 -2.96996 -0.632566 
0.0120312 0.00628125 1.95045 2.53739e+21 1.68736e-05 -1.45235 3.37713 0.544611 
0.0120312 0.00665625 2.02084 2.70349e+21 1.79782e-05 0.589397 1.82473 1.29555 
0.00546875 0.00684375 2.04346 3.11095e+21 2.06878e-05 7.20135 3.98668 2.55615 
0.00546875 0.00703125 2.06234 3.22683e+21 2.14584e-05 -0.000193018 6.70878 2.32475 
0.00546875 0.00721875 2.09102 3.09875e+21 2.06067e-05 3.92364 3.33605 -0.236936 
0.00546875 0.00740625 2.0066 3.0149e+21 2.00491e-05 -6.12902 1.73465 0.856474 
0.0120312 0.00684375 2.05353 2.59149e+21 1.72334e-05 3.561 1.76122 -1.01231 
0.0120312 0.00703125 1.94503 2.6218e+21 1.7435e-05 2.35008 0.758118 2.18462 
0.0120312 0.00721875 2.02735 2.7114e+21 1.80308e-05 0.660619 -3.75479 2.66208 
0.00546875 0.00909375 1.98668 3.23731e+21 2.15281e-05 -2.24839 7.03002 3.6663 
0.00546875 0.00928125 1.89376 3.16761e+21 2.10646e-05 0.924298 2.88933 -0.318226 
0.00546875 0.00946875 1.92653 3.00364e+21 1.99742e-05 3.4475 -0.581746 1.03531 
0.00546875 0.00965625 2.0238 3.01977e+21 2.00815e-05 4.23079 1.29267 2.15093 
0.00546875 0.00984375 2.05912 3.02718e+21 2.01307e-05 1.92098 -0.155855 2.39185 
0.00546875 0.0100312 2.00282 2.9467e+21 1.95956e-05 5.68382 3.61648 5.71071 
0.00546875 0.0102187 2.07326 3.1389e+21 2.08737e-05 0.154176 3.20905 -2.70572 
0.00546875 0.0104062 2.05211 3.05931e+21 2.03444e-05 4.40217 0.518864 3.55286 
0.00546875 0.0120938 1.98092 2.9396e+21 1.95484e-05 0.911789 3.68776 0.0961867 
0.00546875 0.0122813 1.98811 3.11264e+21 2.06991e-05 0.738448 -0.249662 0.563772 
0.00546875 0.0126563 2.13539 2.99707e+21 1.99305e-05 1.92111 -1.15827 2.72698 
0.0339062 0.00121875 1.96002 2.60441e+21 1.73193e-05 0.726049 -0.75086 4.05513 
0.0339062 0.00140625 2.07326 2.62967e+21 1.74873e-05 0.658532 -0.272935 -6.08387 
0.0185937 0.0216562 1.90669 2.46984e+21 1.64245e-05 -4.83797 0.576678 2.17596 
0.00546875 0.00178125 1.85748 3.07224e+21 2.04304e-05 5.55543 13.2623 -3.48107 
0.00546875 0.00196875 1.9338 2.71878e+21 1.80799e-05 -0.687893 11.7742 0.342386 
0.00546875 0.00215625 2.00265 3.05664e+21 2.03267e-05 -7.8014 5.9155 -0.990035 
0.0142187 0.00159375 1.95584 2.54916e+21 1.69519e-05 -1.63625 -2.73322 5.49931 
0.0164062 0.00159375 2.00912 2.55403e+21 1.69843e-05 1.3793 5.58393 -0.502585 
0.00546875 0.00234375 2.01798 2.9655e+21 1.97206e-05 7.68074 9.92923 3.04507 
0.00546875 0.00253125 1.97064 3.26659e+21 2.17229e-05 -4.36456 -0.123896 -2.18909 
0.00546875 0.00271875 1.80089 3.36454e+21 2.23742e-05 8.22362 -6.52537 -5.42451 
0.00546875 0.00290625 1.8921 3.72474e+21 2.47695e-05 -6.34472 4.68916 -0.136786 
0.00546875 0.00459375 2.03324 3.95643e+21 2.63103e-05 -4.39584 6.14825 -1.678 
0.00546875 0.00478125 1.94158 3.29166e+21 2.18895e-05 2.63639 7.43177 -0.246951 
0.00546875 0.00496875 1.92079 3.30411e+21 2.19723e-05 -2.44935 7.78377 -0.186752 
0.00546875 0.00515625 1.97769 3.69525e+21 2.45734e-05 -0.452342 3.72728 2.80164 
0.0120312 0.00459375 1.88108 2.69124e+21 1.78968e-05 3.18994 1.99199 -0.888041 
0.0120312 0.00478125 2.13567 2.56482e+21 1.70561e-05 -2.41431 -0.023141 1.46018 
0.0120312 0.00496875 2.07693 2.46803e+21 1.64124e-05 2.83144 1.32173 0.614387 
0.0120312 0.00515625 2.0027 2.71528e+21 1.80566e-05 0.792119 2.2108 1.65797 
0.00546875 0.00534375 2.07414 3.27407e+21 2.17726e-05 -1.69677 8.10661 1.46072 
0.00546875 0.00553125 1.76974 3.3364e+21 2.21871e-05 1.41023 5.87516 1.33902 
0.00546875 0.00571875 2.10782 3.12224e+21 2.07629e-05 -1.37849 4.73414 4.20174 
0.00546875 0.00590625 1.8602 3.19896e+21 2.12731e-05 0.0262602 8.28389 -3.59229 
0.0120312 0.00534375 1.99399 2.54525e+21 1.69259e-05 -3.50247 0.574163 -2.32806 
0.0120312 0.00553125 2.03417 2.68646e+21 1.78649e-05 -1.0793 -1.41022 0.625272 
0.0120312 0.00571875 2.12573 2.60885e+21 1.73489e-05 -2.81723 1.42591 -0.64477 
0.0120312 0.00590625 1.99105 2.46178e+21 1.63708e-05 -2.62892 -1.99053 -7.09951 
0.00546875 0.00759375 1.94522 3.25607e+21 2.16529e-05 0.0271691 1.12574 -0.636757 
0.00546875 0.00778125 1.93129 3.08521e+21 2.05167e-05 4.37598 6.08542 3.37579 
0.00546875 0.00796875 1.94674 3.15799e+21 2.10006e-05 -0.653588 2.27779 -4.49304 
0.00546875 0.00815625 2.11832 3.26659e+21 2.17229e-05 -3.24135 6.63184 3.74274 
0.0120312 0.00759375 1.99964 2.64852e+21 1.76127e-05 2.55285 -3.18673 0.948916 
0.00546875 0.00834375 2.12986 3.16925e+21 2.10755e-05 -2.36424 3.82866 1.30573 
0.00546875 0.00853125 2.08063 3.14642e+21 2.09237e-05 1.79022 3.48296 -2.44673 
0.00546875 0.00871875 1.99764 3.17955e+21 2.1144e-05 0.395224 7.81145 -1.50371 
0.00546875 0.00890625 1.95275 3.06327e+21 2.03708e-05 -0.0968421 0.374949 2.05932 
0.00546875 0.0105937 1.95964 2.97123e+21 1.97587e-05 -4.70439 1.13235 -0.0707474 
0.00546875 0.0107812 2.0625 2.86398e+21 1.90455e-05 1.05848 0.6487 -1.5167 
0.00546875 0.0109687 1.98331 3.1974e+21 2.12627e-05 1.97124 0.305661 0.051819 
0.00546875 0.0111562 1.99979 2.90735e+21 1.93339e-05 0.370473 3.2031 -3.52345 
0.00546875 0.0115312 1.97433 2.95829e+21 1.96727e-05 0.84068 -0.918056 -1.85647 
0.0339062 0.00159375 1.94216 2.56864e+21 1.70814e-05 -0.908506 1.79746 0.168413 
0.0360937 0.00196875 1.91769 2.71994e+21 1.80876e-05 2.53115 -1.0969 3.11898 
0.0109375 0.0001875 2.12857 6.21022e+21 4.12979e-05 7.84841 -0.21273 5.16969 
0.0109375 0.0001875 1.41478 1.97061e+21 1.31045e-05 22.1993 -8.492 -24.5155 
0.0153125 0.0001875 1.99252 2.52999e+21 1.68244e-05 3.52224 0.165976 4.45534 
0.0109375 0.0005625 2.08695 5.51374e+21 3.66664e-05 10.743 10.5882 -3.958 
0.0109375 0.0005625 2.03281 2.68074e+21 1.78269e-05 -3.53274 -2.66737 0.318377 
0.0196875 0.0001875 1.98801 2.72142e+21 1.80974e-05 1.25351 -2.4151 -5.37598 
0.0240625 0.0001875 2.065 2.55068e+21 1.6962e-05 2.14074 0.10882 1.14805 
0.0284375 0.0001875 1.96032 2.61794e+21 1.74093e-05 -2.20487 -3.19444 0.631102 
0.0328125 0.0001875 1.94453 2.65416e+21 1.76502e-05 0.149999 -0.674997 2.26654 
0.0142187 0.00121875 2.00727 2.4675e+21 1.64089e-05 0.517106 1.63786 0.652643 
0.0164062 0.00121875 1.91234 2.71903e+21 1.80816e-05 0.150401 0.66173 0.0769782 
0.0164062 0.00140625 1.95919 2.6683e+21 1.77442e-05 -0.435624 -1.51169 2.06663 
0.0120312 0.00346875 1.92909 2.56222e+21 1.70388e-05 5.37084 -1.6638 0.95833 
0.0120312 0.00365625 2.042 2.48545e+21 1.65283e-05 6.43692 -1.0844 -0.230288 
0.0120312 0.00421875 1.90491 2.63221e+21 1.75042e-05 4.26826 -1.04102 -0.166581 
0.0120312 0.00440625 2.13234 2.63352e+21 1.75129e-05 0.442002 -0.346694 -1.32514 
0.00984375 0.00159375 1.9721 4.86165e+21 3.233e-05 2.63695 13.7412 1.72634 
0.0120312 0.00159375 2.07702 2.58153e+21 1.71672e-05 1.83637 -0.303803 -4.20884 
0.00984375 0.00178125 2.02661 4.64926e+21 3.09176e-05 1.3357 14.0408 0.80679 
0.0120312 0.00178125 2.09471 2.74708e+21 1.82681e-05 2.57353 -5.10677 4.66504 
0.00984375 0.00234375 1.93716 4.16491e+21 2.76966e-05 4.15245 15.0164 0.55703 
0.0120312 0.00234375 2.01249 2.67577e+21 1.77939e-05 -7.32443 -5.0818 -3.96864 
0.0120312 0.00253125 2.1956 2.56436e+21 1.7053e-05 4.5796 -0.433066 -2.44931 
0.0120312 0.00271875 2.08846 2.76216e+21 1.83683e-05 -0.446171 -1.25832 2.44928 
0.00984375 0.00290625 1.99693 3.91672e+21 2.60462e-05 1.66407 12.2156 -0.0519552 
0.0120312 0.00290625 2.03176 2.62519e+21 1.74575e-05 -0.288709 -1.0292 -3.93952 
0.0207812 0.00159375 1.98643 2.58812e+21 1.7211e-05 -1.8691 2.40851 1.25759 
0.0207812 0.00178125 2.05605 2.52264e+21 1.67755e-05 4.5436 -0.0924965 -0.104865 
0.0229687 0.00159375 2.08359 2.5662e+21 1.70653e-05 0.634167 2.63059 -1.74091 
0.0251562 0.00159375 2.07155 2.60516e+21 1.73243e-05 0.750207 0.88654 -3.85181 
0.0295312 0.00196875 1.95752 2.72388e+21 1.81138e-05 -0.700776 -1.94966 1.29664 
0.0404687 0.00159375 1.98842 2.71716e+21 1.80691e-05 2.61862 0.0769204 -0.00290631 
0.00492187 0.000984375 1.96422 1.09586e+22 7.28747e-05 36.1356 -0.105444 1.42157 
0.00601562 0.000984375 1.93405 8.51459e+21 5.66221e-05 38.2234 1.63995 -4.19775 
0.00492187 0.00107813 1.93695 1.03512e+22 6.88355e-05 32.3049 -0.450164 -1.18376 
0.00601562 0.00107813 1.83203 7.83178e+21 5.20813e-05 41.5391 6.66762 1.09766 
0.00273437 0.00117188 1.69601 1.61678e+22 0.000107516 19.0353 -9.11624 -0.480707 
0.00273437 0.00126563 1.8632 1.40428e+22 9.33848e-05 22.0572 -7.48647 -3.00645 
0.00273437 0.00135937 1.94356 1.55412e+22 0.000103349 17.2274 -13.6851 7.38037 
0.00273437 0.00145312 2.14797 1.75386e+22 0.000116632 14.6231 -5.49939 4.83207 
0.00601562 0.00117188 1.90305 8.39728e+21 5.58419e-05 41.0821 7.18059 0.484834 
0.00492187 0.00126563 1.96404 1.14421e+22 7.60903e-05 24.9526 2.93124 -1.30425 
0.00601562 0.00126563 1.94637 8.38845e+21 5.57832e-05 33.6647 -0.507356 -3.13782 
0.00492187 0.00135937 1.96536 1.10527e+22 7.35002e-05 26.4868 0.734615 -0.321557 
0.00601562 0.00135937 1.94282 8.46077e+21 5.62641e-05 30.8992 -1.32404 -1.23527 
0.00492187 0.00145312 1.89842 1.05319e+22 7.00368e-05 21.9014 2.38724 0.634756 
0.00601562 0.00145312 1.97081 7.49834e+21 4.98639e-05 29.813 2.93322 -3.46942 
0.00710937 0.00135937 1.92591 4.95543e+21 3.29536e-05 36.545 12.0559 2.16706 
0.00820312 0.00135937 1.9295 4.45304e+21 2.96127e-05 23.2756 18.9291 -2.69779 
0.00710937 0.00145312 1.87124 5.04162e+21 3.35268e-05 29.9006 18.753 1.27835 
0.00820312 0.00145312 1.97289 4.55027e+21 3.02593e-05 18.019 17.895 -2.63172 
0.00820312 0.00323438 1.98262 3.4456e+21 2.29132e-05 -1.6705 13.7542 0.173607 
0.00820312 0.00332813 2.04215 3.72164e+21 2.47489e-05 0.792727 11.777 -0.909274 
0.00710937 0.00342187 1.89797 3.597e+21 2.392e-05 -1.16484 7.38061 0.133545 
0.00820312 0.00342187 1.98939 3.62875e+21 2.41312e-05 4.05465 14.3646 3.45478 
0.00710937 0.00351562 1.92325 3.34655e+21 2.22546e-05 1.80452 11.5786 3.10375 
0.00820312 0.00351562 2.00759 3.70858e+21 2.46621e-05 -0.369729 15.7683 -1.91064 
0.00710937 0.00360937 1.94989 3.52195e+21 2.34209e-05 -0.129751 6.87787 3.74754 
0.00820312 0.00360937 2.00371 3.40584e+21 2.26488e-05 -0.172696 11.3206 1.19139 
0.00710937 0.00370312 1.93326 3.62559e+21 2.41102e-05 -2.60055 10.5779 -0.586459 
0.00820312 0.00370312 2.01503 3.70523e+21 2.46398e-05 -3.1771 14.1595 -1.23416 
0.00710937 0.00379687 1.91751 3.29079e+21 2.18838e-05 -5.47707 7.66878 -0.15796 
0.00820312 0.00379687 1.94568 3.33167e+21 2.21556e-05 4.6552 14.4762 0.999276 
0.00710937 0.00389062 1.92517 3.23144e+21 2.14891e-05 1.63559 9.82605 -1.20274 
0.00710937 0.00407813 1.902 3.57765e+21 2.37914e-05 1.8327 10.0625 3.75486 
0.00710937 0.00417188 1.98737 3.58655e+21 2.38505e-05 -1.17099 7.52794 -2.04166 
0.00820312 0.00426563 2.05385 3.2239e+21 2.14389e-05 0.794996 9.82871 2.16418 
0.00820312 0.00435938 2.00141 3.52842e+21 2.3464e-05 -4.26623 11.9549 1.94904 
0.00710937 0.00445313 1.94046 3.37397e+21 2.24369e-05 0.802624 6.19633 -2.43572 
0.0158594 0.00417188 1.94227 2.64154e+21 1.75663e-05 1.18289 -0.79698 0.718233 
0.0169531 0.00417188 1.91481 2.71967e+21 1.80858e-05 0.519005 -3.61223 -0.47155 
0.0158594 0.00426563 1.98242 2.72176e+21 1.80997e-05 0.767288 -2.36976 2.59245 
0.0169531 0.00426563 2.09776 2.56893e+21 1.70834e-05 -2.06232 -4.73098 -1.28668 
0.0169531 0.00604688 2.00385 2.57198e+21 1.71037e-05 2.37855 -3.23146 1.85766 
0.0158594 0.00614063 1.94791 2.56557e+21 1.70611e-05 1.66071 -1.83578 -1.09144 
0.0147656 0.00623438 1.96896 2.78592e+21 1.85263e-05 1.42373 -1.995 -0.0636707 
0.0158594 0.00623438 2.01 2.64401e+21 1.75826e-05 2.72653 -0.754734 -2.2337 
0.0158594 0.00632813 1.99079 2.69804e+21 1.7942e-05 -0.492963 1.48048 0.148951 
0.0169531 0.00632813 1.99907 2.71521e+21 1.80561e-05 3.05276 1.18375 0.309927 
0.0136719 0.00642188 1.96496 2.45563e+21 1.63299e-05 0.0348013 -1.71635 0.11396 
0.0136719 0.00651563 1.95029 2.70616e+21 1.79959e-05 -0.946035 -0.0423339 1.10579 
0.0147656 0.00651563 2.02846 2.63707e+21 1.75365e-05 0.758754 1.48759 0.840005 
0.0169531 0.00642188 1.96183 2.64415e+21 1.75836e-05 1.89362 0.742662 -1.38583 
0.0158594 0.00651563 1.99265 2.62993e+21 1.7489e-05 0.935862 -3.11362 -0.955711 
0.0158594 0.00660938 1.92532 2.67717e+21 1.78032e-05 1.81113 -0.48461 -1.10923 
0.0169531 0.00670313 1.97336 2.66751e+21 1.77389e-05 2.55463 -3.05945 0.624822 
0.0136719 0.00698437 1.95602 2.62232e+21 1.74384e-05 -0.213469 -0.00226955 4.14303 
0.0103906 0.00904687 0 0 0 0 0 0 
0.0103906 0.00914062 0 0 0 0 0 0 
0.00820312 0.0127031 2.02547 3.06416e+21 2.03767e-05 -0.514039 -1.1396 -1.65088 
0.00929687 0.0127031 2.1051 3.06416e+21 2.03767e-05 2.91381 1.65774 -1.75387 
0.0103906 0.0127031 1.94377 3.13237e+21 2.08303e-05 1.31185 -2.18395 0.270806 
0.0114844 0.0127031 1.91568 2.84642e+21 1.89287e-05 3.60358 1.51361 -1.4805 
0.0136719 0.0127031 2.01914 2.52374e+21 1.67828e-05 -2.05285 2.3578 -3.63804 
0.0169531 0.0127031 1.96091 2.66015e+21 1.769e-05 -0.599396 1.69792 0.809581 
0.0267969 0.00360937 1.97564 2.41247e+21 1.60429e-05 -1.24819 -4.41023 0.214774 
0.0278906 0.00360937 2.00797 2.50277e+21 1.66435e-05 1.77276 -3.64871 1.62078 
0.0267969 0.00370312 2.01977 2.48133e+21 1.65008e-05 -0.122896 -1.55636 -3.83952 
0.0278906 0.00370312 2.07609 2.59869e+21 1.72813e-05 2.25652 -0.166827 0.2803 
0.0311719 0.00398438 1.89556 2.5516e+21 1.69681e-05 8.10557 1.78028 -4.41712 
0.0322656 0.00398438 2.02677 2.43473e+21 1.61909e-05 5.71251 2.70593 0.153516 
0.0311719 0.00407813 1.93484 2.6566e+21 1.76664e-05 2.05783 1.77487 -1.30586 
0.0322656 0.00407813 1.94346 2.90399e+21 1.93115e-05 -0.503307 -1.31178 -1.13729 
0.0267969 0.00417188 2.08328 2.71595e+21 1.80611e-05 3.10976 0.304249 0.17745 
0.0278906 0.00417188 1.97619 2.58202e+21 1.71704e-05 0.621094 -2.59272 3.14216 
0.0267969 0.00426563 2.0899 2.62715e+21 1.74706e-05 1.66099 -0.670492 -2.23224 
0.0278906 0.00426563 1.89229 2.70357e+21 1.79787e-05 1.09376 1.08061 -1.61541 
0.0180469 0.00604688 1.9671 2.67209e+21 1.77694e-05 0.990974 2.26 -1.92048 
0.0191406 0.00614063 1.96416 2.68943e+21 1.78847e-05 0.381874 -0.393542 2.36521 
0.0191406 0.00632813 1.97651 2.3939e+21 1.59194e-05 3.44447 -1.01255 -2.62715 
0.0224219 0.00604688 1.93735 2.64898e+21 1.76158e-05 3.39162 -4.23121 -0.485351 
0.0224219 0.00614063 2.00791 2.61865e+21 1.7414e-05 2.48264 -0.0634433 -1.35006 
0.0246094 0.00604688 1.9734 2.65669e+21 1.7667e-05 0.0775955 2.69573 0.720353 
0.0246094 0.00623438 1.98398 2.72118e+21 1.80959e-05 0.282318 0.543984 0.982061 
0.0180469 0.00642188 2.02171 2.52572e+21 1.6796e-05 3.2234 3.18847 -3.42484 
0.0191406 0.00651563 1.92961 2.58943e+21 1.72197e-05 0.0541575 1.18673 1.05134 
0.0191406 0.00670313 1.99505 2.70687e+21 1.80007e-05 0.701433 -0.964669 0.966789 
0.0202344 0.00670313 2.05558 2.76245e+21 1.83703e-05 -1.90729 -1.51124 -1.32608 
0.0235156 0.00642188 2.0598 2.50397e+21 1.66514e-05 2.13636 -1.0116 -3.62143 
0.0235156 0.00651563 2.0242 2.60372e+21 1.73148e-05 -0.187157 -0.823319 4.73363 
0.0246094 0.00642188 1.94355 2.71424e+21 1.80497e-05 0.0578423 0.466949 0.820487 
0.0257031 0.00642188 2.04896 2.52572e+21 1.6796e-05 3.1814 -1.38754 -0.0440979 
0.0257031 0.00651563 2.06588 2.64184e+21 1.75682e-05 1.76182 0.786562 -2.29219 
0.0224219 0.00660938 1.97036 2.66073e+21 1.76938e-05 3.11004 0.84406 0.110815 
0.0289844 0.00614063 1.9853 2.63887e+21 1.75485e-05 1.16965 -0.382637 3.47773 
0.0300781 0.00614063 1.9798 2.60854e+21 1.73468e-05 1.92676 1.54386 1.86321 
0.0289844 0.00632813 1.94106 2.4822e+21 1.65066e-05 3.66718 0.155205 -0.286628 
0.0300781 0.00632813 1.949 2.55087e+21 1.69633e-05 0.850744 0.13333 0.0617597 
0.0322656 0.00604688 2.00154 2.64642e+21 1.75987e-05 2.37707 0.971126 3.06955 
0.0322656 0.00614063 1.93316 2.73493e+21 1.81873e-05 -1.10639 0.460308 0.360242 
0.0300781 0.00642188 2.09964 2.60065e+21 1.72943e-05 2.83568 -0.71516 1.4509 
0.0267969 0.00660938 1.99153 2.49869e+21 1.66163e-05 0.810358 -2.74254 -0.720406 
0.0278906 0.00660938 2.02405 2.67951e+21 1.78188e-05 3.33182 1.40697 -3.07886 
0.0267969 0.00670313 2.01756 2.55636e+21 1.69998e-05 2.69615 4.73641 -0.636483 
0.0311719 0.00651563 2.00687 2.6609e+21 1.7695e-05 4.35272 1.1057 1.82547 
0.0322656 0.00651563 2.0317 2.55132e+21 1.69662e-05 1.20699 -1.58307 6.25301 
0.0311719 0.00660938 1.94622 2.55505e+21 1.69911e-05 -2.83423 -0.638779 -0.163274 
0.0311719 0.00670313 2.09455 2.6953e+21 1.79237e-05 0.973314 4.89646 -0.379706 
0.0191406 0.00689062 2.0135 2.49581e+21 1.65972e-05 0.652935 -4.71612 -0.0620378 
0.0202344 0.00698437 1.88807 2.5712e+21 1.70985e-05 0.299961 3.31033 -2.94867 
0.0202344 0.00707812 1.96233 2.65118e+21 1.76303e-05 -0.264981 1.7319 -1.18975 
0.0257031 0.00689062 2.01403 2.68728e+21 1.78704e-05 3.86173 0.749031 -0.0923086 
0.0202344 0.00717187 1.98026 2.59704e+21 1.72703e-05 5.12626 -0.596498 0.540598 
0.0213281 0.00726562 1.98479 2.61908e+21 1.74169e-05 0.618852 -1.84302 0.23898 
0.0278906 0.00689062 1.94255 2.68728e+21 1.78704e-05 2.59105 1.80985 -1.95355 
0.0311719 0.00679687 1.96694 2.60103e+21 1.72968e-05 1.02661 -1.44527 -1.10081 
0.0278906 0.00726562 1.97421 2.62762e+21 1.74737e-05 -2.47899 -0.0168516 -1.98628 
0.0333594 0.00717187 2.00189 2.62301e+21 1.7443e-05 1.0084 -1.19085 0.528548 
0.0311719 0.00735937 1.99133 2.60048e+21 1.72932e-05 4.00018 -1.59346 2.59945 
0.0180469 0.0127031 2.01481 2.53948e+21 1.68875e-05 1.9749 0.463385 0.653864 
0.0180469 0.0161719 0 0 0 0 0 0 
0.0180469 0.0162656 0 0 0 0 0 0 
0.0180469 0.0163594 0 0 0 0 0 0 
0.0180469 0.0164531 0 0 0 0 0 0 
0.0180469 0.0182344 0 0 0 0 0 0 
0.0180469 0.0183281 0 0 0 0 0 0 
0.0180469 0.0191719 0 0 0 0 0 0 
0.0180469 0.0192656 0 0 0 0 0 0 
0.0180469 0.0212344 0 0 0 0 0 0 
0.0180469 0.0213281 0 0 0 0 0 0 
0.00601562 0.00154688 2.0228 7.94973e+21 5.28657e-05 22.4252 4.91897 -1.91414 
0.00492187 0.00164063 0 0 0 0 0 0 
0.00601562 0.00164063 2.10073 4.09034e+21 2.72008e-05 13.4892 22.5388 1.77778 
0.00710937 0.00154688 1.81791 4.37484e+21 2.90927e-05 31.2974 20.9217 -1.32438 
0.00820312 0.00154688 2.00285 4.38487e+21 2.91594e-05 16.1701 14.8003 0.0460042 
0.00710937 0.00164063 2.03402 4.20053e+21 2.79335e-05 18.653 24.0883 3.36678 
0.00820312 0.00164063 2.05138 4.07754e+21 2.71157e-05 12.9711 13.0968 0.538657 
0.00710937 0.00229688 1.8953 3.62884e+21 2.41318e-05 5.02006 12.1622 -1.20354 
0.00820312 0.00229688 2.03976 4.11539e+21 2.73673e-05 3.12476 17.4319 0.647355 
0.00710937 0.00239063 1.92327 3.79818e+21 2.52579e-05 1.95205 11.397 4.6647 
0.00820312 0.00239063 1.9271 3.92154e+21 2.60782e-05 1.69911 15.1131 2.60019 
0.00710937 0.00267187 1.98359 3.2938e+21 2.19038e-05 -1.08606 8.04469 -1.24817 
0.00820312 0.00267187 1.90578 3.81082e+21 2.5342e-05 -0.752476 12.7803 0.915848 
0.00710937 0.00276562 1.98111 3.48521e+21 2.31767e-05 -1.14794 7.99631 -3.70961 
0.00820312 0.00276562 1.99413 3.90613e+21 2.59758e-05 0.903643 15.0958 -3.08184 
0.00710937 0.00285937 1.88301 3.26238e+21 2.16948e-05 -0.802581 12.3894 0.14618 
0.00820312 0.00285937 1.95805 3.88663e+21 2.58461e-05 -5.55697 14.3098 2.60522 
0.00710937 0.00295313 1.99343 3.72119e+21 2.47459e-05 2.83273 12.4626 1.16768 
0.00820312 0.00295313 1.95995 3.71068e+21 2.4676e-05 -0.800084 13.3982 3.37875 
0.00710937 0.00454687 1.94264 3.59798e+21 2.39265e-05 0.273985 4.98407 0.805299 
0.00820312 0.00473437 1.92649 3.35713e+21 2.23249e-05 -4.22612 9.49378 4.1732 
0.00820312 0.00482812 1.95604 3.43661e+21 2.28534e-05 -0.175419 12.5969 1.00519 
0.00820312 0.00510937 2.00057 3.3811e+21 2.24843e-05 -2.27667 8.79193 -2.95754 
0.0136719 0.00473437 1.88244 2.55719e+21 1.70053e-05 -0.138605 1.04019 -1.78013 
0.0147656 0.00473437 1.90591 2.62931e+21 1.74849e-05 2.38774 0.993083 1.52811 
0.0136719 0.00482812 1.98889 2.65863e+21 1.76799e-05 -0.542839 -0.08126 -0.5268 
0.0147656 0.00482812 1.87258 2.55897e+21 1.70172e-05 1.91309 1.29115 -1.12662 
0.00929687 0.00510937 1.9601 3.4632e+21 2.30303e-05 -2.5877 6.05887 0.670232 
0.0103906 0.00510937 0 0 0 0 0 0 
0.00929687 0.00520312 2.03376 3.26276e+21 2.16973e-05 -2.4051 6.44139 -0.043026 
0.0103906 0.00520312 0 0 0 0 0 0 
0.00820312 0.00529687 1.92441 3.26435e+21 2.17079e-05 -5.93058 6.71471 0.0542494 
0.00710937 0.00548437 1.93484 3.28576e+21 2.18503e-05 -3.08075 7.49441 2.3288 
0.0136719 0.00548437 1.98886 2.52163e+21 1.67688e-05 4.6248 3.67227 -1.43169 
0.0147656 0.00548437 2.04394 2.69993e+21 1.79545e-05 -2.41787 -1.7124 1.87553 
0.0136719 0.00557812 1.97491 2.81316e+21 1.87075e-05 0.274682 2.39777 -1.41678 
0.0147656 0.00557812 1.96494 2.62116e+21 1.74307e-05 -0.561277 0.198264 1.57881 
0.0158594 0.00548437 1.9863 2.62351e+21 1.74464e-05 3.4499 -2.21389 2.42617 
0.0169531 0.00548437 2.00049 2.78766e+21 1.85379e-05 1.96749 -1.06443 -2.45837 
0.0158594 0.00557812 2.01445 2.79646e+21 1.85965e-05 2.10979 -2.27381 -3.15997 
0.0169531 0.00557812 1.96947 2.49316e+21 1.65795e-05 0.601576 -0.777946 0.664358 
0.0136719 0.00567187 2.01404 2.52858e+21 1.6815e-05 -1.87775 1.41397 -0.457168 
0.0147656 0.00567187 1.98913 2.61888e+21 1.74156e-05 1.09481 -6.81356 1.07438 
0.0136719 0.00576562 2.00454 2.71898e+21 1.80812e-05 -0.432466 -2.0542 0.971537 
0.0169531 0.00585938 1.92842 2.4768e+21 1.64707e-05 3.08018 -4.57097 1.08222 
0.0158594 0.00595313 2.06497 2.65681e+21 1.76678e-05 -0.292846 1.54145 -0.480126 
0.0103906 0.00810938 0 0 0 0 0 0 
0.0103906 0.00820313 0 0 0 0 0 0 
0.0103906 0.00867188 0 0 0 0 0 0 
0.0103906 0.00876563 0 0 0 0 0 0 
0.0224219 0.00454687 2.03786 2.54658e+21 1.69347e-05 1.55902 -4.39187 0.401162 
0.0235156 0.00454687 1.95549 2.73091e+21 1.81606e-05 1.54865 3.13177 1.46997 
0.0224219 0.00464062 2.08412 2.58209e+21 1.71709e-05 -0.0567034 2.85617 -4.01168 
0.0246094 0.00473437 1.97834 2.708e+21 1.80082e-05 3.71802 1.71147 0.752309 
0.0257031 0.00473437 2.05186 2.46539e+21 1.63949e-05 2.70809 -2.49605 1.96006 
0.0246094 0.00482812 1.99698 2.70042e+21 1.79578e-05 1.77734 -1.47781 1.39398 
0.0257031 0.00482812 2.06406 2.51075e+21 1.66965e-05 0.448116 -0.693421 0.407983 
0.0202344 0.00492187 1.93249 2.56384e+21 1.70495e-05 3.88294 -0.181943 0.559758 
0.0213281 0.00492187 2.01994 2.63952e+21 1.75528e-05 5.33967 -4.73783 -0.96333 
0.0202344 0.00501562 2.00334 2.76967e+21 1.84183e-05 2.93858 -3.53859 0.626302 
0.0213281 0.00501562 2.03586 2.71088e+21 1.80273e-05 3.20555 1.85023 -1.34171 
0.0246094 0.00510937 1.99089 2.67329e+21 1.77774e-05 -2.00395 0.0107048 2.302 
0.0257031 0.00510937 2.01095 2.68544e+21 1.78582e-05 4.56201 2.50452 2.02287 
0.0246094 0.00520312 1.99755 2.63407e+21 1.75166e-05 1.83538 -0.886771 0.41899 
0.0257031 0.00520312 1.98689 2.62512e+21 1.7457e-05 0.316818 3.34581 -2.26254 
0.0333594 0.00473437 2.05414 2.5244e+21 1.67873e-05 -0.159493 -0.306666 -1.56838 
0.0344531 0.00473437 1.9437 2.53752e+21 1.68745e-05 3.53187 -1.26618 1.44884 
0.0333594 0.00482812 1.95359 2.59112e+21 1.72309e-05 -0.216956 1.40495 -1.95343 
0.0344531 0.00482812 1.93519 2.63613e+21 1.75302e-05 -1.31186 2.35921 -4.46768 
0.0289844 0.00510937 2.02297 2.67936e+21 1.78178e-05 -0.999414 1.05694 -0.0347131 
0.0300781 0.00510937 1.93917 2.76442e+21 1.83834e-05 0.885655 -4.79518 1.13705 
0.0289844 0.00520312 2.00115 2.73848e+21 1.82109e-05 0.883232 3.12728 -1.96984 
0.0300781 0.00520312 2.03384 2.53563e+21 1.68619e-05 2.07519 2.05291 5.42957 
0.0333594 0.00510937 2.04921 2.60646e+21 1.73329e-05 -2.21438 1.21022 -0.885233 
0.0344531 0.00510937 1.97146 2.61861e+21 1.74137e-05 4.23853 0.293747 0.224372 
0.0333594 0.00520312 1.94737 2.58634e+21 1.71992e-05 2.12127 1.99212 0.782131 
0.0344531 0.00520312 2.00996 2.59827e+21 1.72785e-05 2.62985 1.55371 -3.73297 
0.0180469 0.00548437 2.00373 2.7254e+21 1.81239e-05 0.390205 -0.321075 -2.47893 
0.0191406 0.00548437 1.91395 2.74804e+21 1.82745e-05 0.0619736 0.543605 -2.20722 
0.0180469 0.00557812 1.92544 2.69907e+21 1.79488e-05 2.00673 -3.78976 0.0446522 
0.0191406 0.00557812 1.99118 2.55716e+21 1.70051e-05 -0.383869 0.952455 -1.28888 
0.0224219 0.00529687 2.02288 2.63433e+21 1.75183e-05 1.84793 3.55003 5.5123 
0.0224219 0.00539062 2.00362 2.62307e+21 1.74434e-05 0.457309 0.242215 -4.55002 
0.0235156 0.00539062 2.04108 2.69505e+21 1.79221e-05 0.757613 -0.066847 -0.760767 
0.0180469 0.00567187 2.05556 2.53405e+21 1.68514e-05 -0.773093 -3.6373 2.0781 
0.0191406 0.00567187 1.91932 2.6654e+21 1.77249e-05 -0.725649 -1.44376 -1.86946 
0.0180469 0.00576562 2.00302 2.71359e+21 1.80454e-05 2.967 -1.25968 0.293336 
0.0180469 0.00585938 2.06648 2.64898e+21 1.76158e-05 2.76072 1.74599 -0.169934 
0.0191406 0.00585938 1.97364 2.6119e+21 1.73691e-05 2.3657 -1.58938 0.421773 
0.0180469 0.00595313 1.97011 2.70374e+21 1.79799e-05 -1.14716 -1.75642 -0.907447 
0.0224219 0.00585938 2.01872 2.58276e+21 1.71754e-05 2.33525 -1.01844 -2.12844 
0.0257031 0.00585938 2.08499 2.54303e+21 1.69111e-05 -0.274995 0.389276 -0.333231 
0.0267969 0.00529687 1.93098 2.49661e+21 1.66025e-05 0.164364 -2.11933 -2.10176 
0.0278906 0.00529687 1.94855 2.59038e+21 1.7226e-05 1.39928 -0.818483 0.608875 
0.0278906 0.00539062 1.99821 2.4935e+21 1.65818e-05 2.57861 0.890566 -1.39665 
0.0289844 0.00548437 1.99412 2.4622e+21 1.63736e-05 0.631103 0.400493 0.638718 
0.0300781 0.00548437 2.0288 2.64898e+21 1.76158e-05 2.77232 0.00183041 -3.98592 
0.0289844 0.00557812 1.9838 2.63785e+21 1.75417e-05 3.84243 0.0309267 1.60856 
0.0300781 0.00557812 1.98154 2.69907e+21 1.79488e-05 0.61086 0.462057 0.841416 
0.0311719 0.00529687 2.03299 2.54642e+21 1.69337e-05 0.148017 0.0930415 0.102325 
0.0322656 0.00529687 2.03797 2.5054e+21 1.66609e-05 4.87518 -4.12407 -1.03177 
0.0311719 0.00539062 2.01948 2.57988e+21 1.71562e-05 2.56611 1.81071 0.396912 
0.0322656 0.00539062 1.99683 2.52517e+21 1.67924e-05 0.875602 -2.841 -1.16982 
0.0311719 0.00548437 1.89415 2.7254e+21 1.81239e-05 1.91859 -3.31315 0.543684 
0.0322656 0.00548437 1.99595 2.5754e+21 1.71264e-05 0.398583 -0.301841 0.0361563 
0.0311719 0.00557812 1.98802 2.64064e+21 1.75602e-05 3.60137 -0.650227 2.0334 
0.0322656 0.00557812 2.04591 2.76585e+21 1.83929e-05 0.949937 3.74343 -1.90882 
0.0344531 0.00548437 2.09638 2.49333e+21 1.65806e-05 2.01241 -2.25046 0.0602731 
0.0333594 0.00557812 1.98573 2.53212e+21 1.68386e-05 -0.52259 1.50976 1.87353 
0.0344531 0.00557812 1.92099 2.60168e+21 1.73012e-05 3.88536 -0.39776 1.34687 
0.0267969 0.00585938 1.87307 2.64898e+21 1.76158e-05 0.497821 1.57361 -1.03029 
0.0278906 0.00585938 1.95058 2.58541e+21 1.7193e-05 0.153341 -1.36672 5.03096 
0.0333594 0.00567187 2.03853 2.59425e+21 1.72518e-05 0.746019 0.672304 -0.478356 
0.0344531 0.00567187 2.01649 2.70372e+21 1.79797e-05 -0.524802 -2.69365 -1.30311 
0.0333594 0.00576562 2.06164 2.65437e+21 1.76516e-05 2.25867 2.64989 -1.29096 