ITEM: TIMESTEP
500000
ITEM: NUMBER OF CELLS
46300
ITEM: BOX BOUNDS oo ao pp
0 0.12
0 0.03
-0.1 0.1
ITEM: CELLS xc yc f_out[1] f_out[2] f_out[3] f_out[4] f_out[5] f_out[6] 
0.003 0.00375 0 0 0 0 0 0 
0.003 0.00525 0 0 0 0 0 0 
0.003 0.00675 0 0 0 0 0 0 
0.003 0.00825 0 0 0 0 0 0 
0.003 0.00975 0 0 0 0 0 0 
0.003 0.01125 0 0 0 0 0 0 
0.003 0.01275 0 0 0 0 0 0 
0.003 0.01425 0 0 0 0 0 0 
0.003 0.01575 0 0 0 0 0 0 
0.003 0.01725 0 0 0 0 0 0 
0.003 0.01875 0 0 0 0 0 0 
0.003 0.02025 0 0 0 0 0 0 
0.003 0.02175 0 0 0 0 0 0 
0.003 0.02325 0 0 0 0 0 0 
0.027 0.02325 0 0 0 0 0 0 
0.003 0.02475 0 0 0 0 0 0 
0.027 0.02475 0 0 0 0 0 0 
0.003 0.02625 0 0 0 0 0 0 
0.027 0.02625 0 0 0 0 0 0 
0.003 0.02775 0 0 0 0 0 0 
0.027 0.02775 0 0 0 0 0 0 
0.003 0.02925 0 0 0 0 0 0 
0.027 0.02925 0 0 0 0 0 0 
0.009 0.01425 0 0 0 0 0 0 
0.009 0.01575 0 0 0 0 0 0 
0.009 0.01725 0 0 0 0 0 0 
0.009 0.01875 0 0 0 0 0 0 
0.009 0.02025 0 0 0 0 0 0 
0.009 0.02175 0 0 0 0 0 0 
0.009 0.02325 0 0 0 0 0 0 
0.009 0.02475 0 0 0 0 0 0 
0.009 0.02625 0 0 0 0 0 0 
0.009 0.02775 0 0 0 0 0 0 
0.009 0.02925 0 0 0 0 0 0 
0.015 0.01425 0 0 0 0 0 0 
0.015 0.01575 0 0 0 0 0 0 
0.015 0.01725 0 0 0 0 0 0 
0.015 0.01875 0 0 0 0 0 0 
0.015 0.02025 0 0 0 0 0 0 
0.015 0.02175 0 0 0 0 0 0 
0.015 0.02325 0 0 0 0 0 0 
0.015 0.02475 0 0 0 0 0 0 
0.015 0.02625 0 0 0 0 0 0 
0.015 0.02775 0 0 0 0 0 0 
0.015 0.02925 0 0 0 0 0 0 
0.021 0.02325 0 0 0 0 0 0 
0.021 0.02475 0 0 0 0 0 0 
0.021 0.02625 0 0 0 0 0 0 
0.021 0.02775 0 0 0 0 0 0 
0.021 0.02925 0 0 0 0 0 0 
0.0015 0.000375 0 0 0 0 0 0 
0.0015 0.001125 0 0 0 0 0 0 
0.0015 0.001875 0 0 0 0 0 0 
0.0015 0.002625 0 0 0 0 0 0 
0.0045 0.002625 0 0 0 0 0 0 
0.0255 0.022125 0 0 0 0 0 0 
0.0285 0.022125 0 0 0 0 0 0 
0.0105 0.000375 1.79789 5.62681e+21 3.74183e-05 6.09804 9.4051 3.25542 
0.0075 0.013125 0 0 0 0 0 0 
0.0105 0.013125 0 0 0 0 0 0 
0.0135 0.013125 0 0 0 0 0 0 
0.0165 0.013125 0 0 0 0 0 0 
0.0195 0.022125 0 0 0 0 0 0 
0.0225 0.022125 0 0 0 0 0 0 
0.00375 0.0001875 1.9409 1.28953e+22 8.57538e-05 31.2074 4.13418 0.159474 
0.00525 0.0001875 1.81841 1.04575e+22 6.95426e-05 46.8692 1.99183 -1.58284 
0.00375 0.0020625 0 0 0 0 0 0 
0.00525 0.0020625 0 0 0 0 0 0 
0.00675 0.0001875 1.68754 6.97169e+21 4.63618e-05 59.445 1.00394 1.6488 
0.00825 0.0001875 1.94233 4.99487e+21 3.32159e-05 35.1042 4.81807 -3.45606 
0.01125 0.0016875 0 0 0 0 0 0 
0.01125 0.0020625 0 0 0 0 0 0 
0.01125 0.0039375 0 0 0 0 0 0 
0.01125 0.0043125 0 0 0 0 0 0 
0.01125 0.0046875 0 0 0 0 0 0 
0.01125 0.0050625 0 0 0 0 0 0 
0.01125 0.0054375 0 0 0 0 0 0 
0.01125 0.0058125 0 0 0 0 0 0 
0.01125 0.0061875 0 0 0 0 0 0 
0.01125 0.0065625 0 0 0 0 0 0 
0.01125 0.0069375 0 0 0 0 0 0 
0.01125 0.0073125 0 0 0 0 0 0 
0.01125 0.0076875 0 0 0 0 0 0 
0.01125 0.0080625 0 0 0 0 0 0 
0.01125 0.0084375 0 0 0 0 0 0 
0.01125 0.0088125 0 0 0 0 0 0 
0.01125 0.0091875 0 0 0 0 0 0 
0.01125 0.0031875 0 0 0 0 0 0 
0.01125 0.0035625 0 0 0 0 0 0 
0.01275 0.0016875 1.98306 2.85143e+21 1.8962e-05 -0.0116889 -0.656923 3.37516 
0.01875 0.0009375 2.04096 2.63174e+21 1.75011e-05 0.886766 0.92223 -0.943753 
0.02025 0.0009375 1.86339 2.65287e+21 1.76416e-05 4.26192 -0.553961 0.508564 
0.02475 0.0009375 1.98275 2.77962e+21 1.84845e-05 -0.897415 -1.25268 -3.40254 
0.02775 0.0009375 1.99599 2.68305e+21 1.78423e-05 1.85115 1.21602 6.54001 
0.02925 0.0009375 1.9573 2.74039e+21 1.82236e-05 2.40197 0.538692 -1.97291 
0.01275 0.0009375 1.95489 2.78981e+21 1.85522e-05 -0.746203 2.51116 4.7636 
0.01425 0.0009375 2.00937 2.56232e+21 1.70395e-05 -0.447119 1.6628 -1.72859 
0.01275 0.0013125 1.94847 2.89409e+21 1.92457e-05 -0.707725 0.378269 0.245558 
0.003375 0.00046875 1.83868 1.31523e+22 8.74631e-05 23.8285 -3.28178 2.07779 
0.004125 0.00046875 2.01934 1.11789e+22 7.43394e-05 36.7586 -1.89364 0.0927918 
0.003375 0.00065625 1.94653 1.2458e+22 8.28455e-05 29.3485 -5.39028 3.42304 
0.004125 0.00065625 1.91644 1.19342e+22 7.93626e-05 34.7859 0.562149 0.512314 
0.004875 0.00046875 1.78795 1.10823e+22 7.36971e-05 41.9473 -5.95254 -3.09794 
0.005625 0.00046875 1.79526 9.92335e+21 6.59903e-05 42.3697 -1.28956 2.65433 
0.004875 0.00065625 1.86902 1.10892e+22 7.3743e-05 43.3665 -6.66672 -0.407866 
0.005625 0.00065625 1.81641 8.53677e+21 5.67695e-05 42.9456 2.38542 1.36135 
0.003375 0.00084375 1.87566 1.38724e+22 9.22517e-05 24.8259 -8.00728 -4.2763 
0.003375 0.00103125 1.93394 1.35596e+22 9.01711e-05 24.5139 -4.71155 3.32729 
0.004875 0.00084375 1.75983 1.171e+22 7.78717e-05 37.3908 -1.06549 0.103383 
0.005625 0.00084375 1.86648 8.55785e+21 5.69097e-05 46.4371 0.632378 -4.42324 
0.005625 0.00103125 1.91139 9.0761e+21 6.0356e-05 43.511 3.24424 0.55799 
0.005625 0.00121875 1.89588 9.48132e+21 6.30508e-05 33.2137 3.68114 -0.209093 
0.005625 0.00140625 1.95992 8.24933e+21 5.48581e-05 29.7383 2.19514 1.81308 
0.024375 0.0216562 1.96997 2.6859e+21 1.78612e-05 1.86522 0.540508 -0.508791 
0.025125 0.0216562 1.98736 2.7324e+21 1.81704e-05 -2.44913 3.61299 -2.50826 
0.025875 0.0216562 1.94013 2.82896e+21 1.88126e-05 -1.55617 -0.659669 -0.116458 
0.026625 0.0216562 2.13621 2.75385e+21 1.83131e-05 -3.2731 0.047839 0.34262 
0.027375 0.0216562 1.99304 2.80035e+21 1.86223e-05 4.98379 -2.96351 -1.80531 
0.028125 0.0216562 1.96998 2.76458e+21 1.83845e-05 0.316285 -2.41999 1.69116 
0.028875 0.0216562 1.94118 2.75028e+21 1.82893e-05 -1.23312 -1.06453 2.32472 
0.029625 0.0216562 1.87689 2.60007e+21 1.72904e-05 5.0192 -0.154898 1.4565 
0.007875 0.00121875 1.99919 4.65244e+21 3.09387e-05 25.566 19.5988 0.541851 
0.008625 0.00121875 2.0666 4.87531e+21 3.24208e-05 16.186 13.7549 1.96458 
0.007875 0.00140625 1.97246 4.74035e+21 3.15233e-05 22.5736 20.0812 -2.89728 
0.008625 0.00140625 2.0082 4.70816e+21 3.13092e-05 15.5672 11.411 -1.56509 
0.006375 0.00196875 1.9219 3.37375e+21 2.24354e-05 4.12566 5.87587 -4.71327 
0.007125 0.00196875 1.99066 3.82861e+21 2.54603e-05 12.687 16.8948 1.34501 
0.006375 0.00215625 1.90005 3.38546e+21 2.25133e-05 2.45313 0.558904 -3.00739 
0.007125 0.00215625 1.92141 3.41696e+21 2.27228e-05 4.26871 15.0007 -0.623528 
0.007875 0.00196875 1.95633 4.22527e+21 2.8098e-05 13.218 18.0287 -0.403396 
0.008625 0.00196875 1.91094 4.28276e+21 2.84803e-05 5.81767 16.3298 -1.11526 
0.007875 0.00215625 1.96098 4.27776e+21 2.84471e-05 9.54347 21.0735 -2.36157 
0.008625 0.00215625 2.02632 4.19903e+21 2.79235e-05 4.17904 15.2386 -2.98983 
0.007875 0.00234375 1.97894 3.7617e+21 2.50153e-05 2.80843 23.5403 0.655904 
0.008625 0.00234375 2.08195 4.27356e+21 2.84192e-05 4.35599 22.8493 -1.14491 
0.007875 0.00253125 2.02292 3.84522e+21 2.55707e-05 1.43838 15.7443 -1.24274 
0.008625 0.00271875 1.96205 4.0879e+21 2.71845e-05 2.46175 14.6707 3.04515 
0.008625 0.00290625 2.02857 3.81637e+21 2.53789e-05 -1.12223 14.7575 -3.01303 
0.006375 0.00309375 1.90287 3.40216e+21 2.26244e-05 -3.35728 5.5579 -3.9455 
0.006375 0.00328125 1.89773 3.46645e+21 2.30519e-05 -1.18427 4.17027 1.14631 
0.006375 0.00384375 2.0528 3.62718e+21 2.41207e-05 1.62548 9.09468 0.502157 
0.006375 0.00403125 1.98446 3.37425e+21 2.24388e-05 -0.281586 2.57678 0.0368728 
0.006375 0.00421875 1.9902 3.63675e+21 2.41844e-05 -4.27099 4.26858 -1.00204 
0.006375 0.00440625 1.89253 3.54942e+21 2.36036e-05 -1.6003 0.357144 2.43801 
0.006375 0.00459375 1.96824 3.27058e+21 2.17494e-05 -0.695674 1.44767 -0.0748037 
0.006375 0.00478125 2.02789 3.48407e+21 2.31691e-05 1.19033 0.449593 -0.305706 
0.006375 0.00496875 1.97194 3.49781e+21 2.32604e-05 0.909066 4.87763 0.175902 
0.006375 0.00515625 2.09006 3.53112e+21 2.34819e-05 -0.432109 1.75962 -0.604009 
0.006375 0.00534375 2.06602 3.39531e+21 2.25788e-05 1.06559 3.68326 -0.871499 
0.006375 0.00553125 1.99301 3.24952e+21 2.16093e-05 -0.663067 0.179386 3.70593 
0.006375 0.00571875 2.03492 3.25059e+21 2.16164e-05 4.01705 5.28633 5.34566 
0.006375 0.00590625 1.9593 3.48513e+21 2.31761e-05 0.340105 5.12024 0.36984 
0.006375 0.00646875 2.09682 3.27721e+21 2.17934e-05 -1.97162 2.12421 4.20654 
0.010125 0.00609375 0 0 0 0 0 0 
0.010125 0.00628125 0 0 0 0 0 0 
0.010125 0.00646875 0 0 0 0 0 0 
0.010125 0.00665625 0 0 0 0 0 0 
0.006375 0.00740625 1.97744 3.36665e+21 2.23882e-05 -3.91643 5.01093 0.362686 
0.010125 0.00871875 0 0 0 0 0 0 
0.010125 0.00890625 0 0 0 0 0 0 
0.010125 0.00909375 0 0 0 0 0 0 
0.010125 0.00928125 0 0 0 0 0 0 
0.010125 0.00946875 1.8463 2.92059e+21 1.94219e-05 1.05304 3.17071 -3.55969 
0.010875 0.00946875 2.00081 2.88639e+21 1.91945e-05 1.96166 2.8251 -1.49105 
0.011625 0.00946875 1.94027 2.87271e+21 1.91035e-05 5.58532 1.36802 3.98958 
0.016125 0.00384375 1.93637 2.67355e+21 1.77791e-05 -0.312416 -0.254281 -2.06931 
0.015375 0.00403125 1.89071 2.74011e+21 1.82217e-05 3.39935 -2.41873 -2.34784 
0.016875 0.00384375 1.97658 2.58816e+21 1.72113e-05 -1.87547 1.48968 -1.84712 
0.017625 0.00384375 1.9892 2.86788e+21 1.90714e-05 2.10963 -2.23006 -4.18071 
0.016875 0.00403125 2.03417 2.64465e+21 1.75869e-05 1.44166 1.37525 2.84177 
0.017625 0.00403125 1.99159 2.79626e+21 1.85951e-05 1.13583 0.465938 -0.158692 
0.013875 0.00459375 2.02473 2.8653e+21 1.90542e-05 1.46219 1.97534 3.12978 
0.013875 0.00478125 2.10236 2.69139e+21 1.78977e-05 -3.19966 -4.19304 -2.42022 
0.016875 0.00459375 1.97488 2.72979e+21 1.81531e-05 2.40573 -1.56412 3.77536 
0.012375 0.00834375 1.82572 2.66538e+21 1.77248e-05 0.164947 -8.2131 5.69038 
0.012375 0.00853125 1.99633 2.82569e+21 1.87908e-05 -10.0514 1.77561 4.36463 
0.012375 0.00871875 1.8048 3.11541e+21 2.07174e-05 -3.37297 -0.447608 5.89065 
0.012375 0.00890625 1.85327 2.82108e+21 1.87602e-05 0.377566 17.2105 -7.95873 
0.012375 0.00909375 2.2836 2.38955e+21 1.58905e-05 -4.41992 4.22047 3.52415 
0.012375 0.00928125 1.93245 2.61564e+21 1.7394e-05 7.64288 -3.63183 0.381244 
0.012375 0.00946875 1.95319 2.82471e+21 1.87843e-05 -6.78647 -5.27608 3.07284 
0.018375 0.00421875 1.98506 2.52711e+21 1.68053e-05 1.76046 1.3772 0.565917 
0.019125 0.00421875 2.00736 2.77661e+21 1.84644e-05 4.63106 -3.79002 3.51634 
0.018375 0.00440625 2.04237 2.67129e+21 1.77641e-05 -0.210272 -3.39441 0.91874 
0.018375 0.0135938 0 0 0 0 0 0 
0.018375 0.0137813 0 0 0 0 0 0 
0.018375 0.0147187 0 0 0 0 0 0 
0.018375 0.0149062 0 0 0 0 0 0 
0.018375 0.0158438 0 0 0 0 0 0 
0.018375 0.0160313 0 0 0 0 0 0 
0.018375 0.0162188 0 0 0 0 0 0 
0.018375 0.0164062 0 0 0 0 0 0 
0.018375 0.0177187 0 0 0 0 0 0 
0.018375 0.0179062 0 0 0 0 0 0 
0.018375 0.0188437 0 0 0 0 0 0 
0.018375 0.0190312 0 0 0 0 0 0 
0.018375 0.0195938 0 0 0 0 0 0 
0.018375 0.0197812 0 0 0 0 0 0 
0.018375 0.0199687 0 0 0 0 0 0 
0.018375 0.0201562 0 0 0 0 0 0 
0.018375 0.0207187 0 0 0 0 0 0 
0.018375 0.0209062 0 0 0 0 0 0 
0.018375 0.0210937 0 0 0 0 0 0 
0.018375 0.0212812 0 0 0 0 0 0 
0.019875 0.0216562 1.96111 2.77531e+21 1.84558e-05 2.78681 5.88112 2.08708 
0.020625 0.0216562 2.06629 2.75385e+21 1.83131e-05 3.03115 -1.6321 -3.0291 
0.021375 0.0216562 1.95945 2.73597e+21 1.81942e-05 -1.46994 0.966341 -3.64018 
0.022125 0.0216562 2.03246 2.61795e+21 1.74094e-05 0.0837019 0.24479 -0.274297 
0.022875 0.0216562 2.03834 2.86115e+21 1.90266e-05 1.49569 0.227244 0.424204 
0.023625 0.0216562 2.0178 2.85042e+21 1.89553e-05 2.9161 1.13195 -1.38192 
0.01125 0.0024375 0 0 0 0 0 0 
0.01125 0.0028125 0 0 0 0 0 0 
0.02175 0.0009375 1.9503 2.78868e+21 1.85447e-05 2.55381 0.68786 1.05099 
0.02325 0.0009375 1.91798 2.61363e+21 1.73806e-05 2.2487 2.9213 0.0448707 
0.01575 0.0009375 1.98022 2.5925e+21 1.72402e-05 1.47208 2.06484 -3.03147 
0.01725 0.0009375 2.00938 2.69814e+21 1.79426e-05 1.91436 -0.744792 2.3138 
0.029625 0.00346875 2.03731 2.74398e+21 1.82475e-05 1.34673 -3.91562 -4.16535 
0.028875 0.00365625 2.14279 2.70541e+21 1.7991e-05 0.604949 -2.7611 -1.76113 
0.029625 0.00365625 1.95018 2.88495e+21 1.91849e-05 0.56181 0.293882 1.71295 
0.024375 0.00384375 2.04168 2.71477e+21 1.80532e-05 3.51827 -0.917588 0.0263665 
0.025125 0.00384375 1.93083 2.71772e+21 1.80728e-05 2.60825 1.97606 0.959332 
0.025125 0.00403125 1.99042 2.5857e+21 1.71949e-05 3.06099 2.63071 1.61967 
0.024375 0.00421875 2.0501 2.66661e+21 1.7733e-05 3.14062 -0.500472 -1.02454 
0.025125 0.00421875 2.01478 2.69612e+21 1.79292e-05 3.14042 3.91983 2.06944 
0.028125 0.00403125 2.05048 2.81872e+21 1.87445e-05 0.949284 2.72981 -0.916603 
0.028125 0.00421875 1.97125 2.71759e+21 1.80719e-05 2.53259 -1.23837 -2.28277 
0.029625 0.00421875 2.05683 2.68271e+21 1.784e-05 4.96622 -2.35598 -2.77333 
0.028875 0.00440625 1.98589 2.88192e+21 1.91647e-05 -0.493884 -0.990556 4.75513 
0.025125 0.00459375 2.02708 2.73226e+21 1.81695e-05 1.47593 3.12215 1.56133 
0.025875 0.00459375 2.04467 2.83327e+21 1.88413e-05 1.66715 -1.60223 -0.0268233 
0.025875 0.00478125 2.01562 2.73163e+21 1.81653e-05 0.649453 -0.00296092 0.064756 
0.026625 0.00478125 1.9096 2.63695e+21 1.75357e-05 1.99805 1.85724 0.920986 
0.029625 0.00459375 1.94072 2.66574e+21 1.77272e-05 -1.1285 1.3092 -2.08436 
0.006375 0.00084375 1.71697 6.84091e+21 4.54921e-05 54.8657 1.25884 -3.08808 
0.007125 0.00084375 1.66871 5.17763e+21 3.44312e-05 50.8641 8.11069 -1.12137 
0.006375 0.00103125 1.6574 6.74946e+21 4.48839e-05 47.5693 3.48547 -4.24426 
0.007125 0.00103125 1.79715 5.10325e+21 3.39366e-05 44.7005 8.98467 -0.154969 
0.006375 0.00121875 1.8187 6.79758e+21 4.52039e-05 43.8374 8.79667 0.378668 
0.007125 0.00121875 1.86064 5.12604e+21 3.40882e-05 41.2382 17.2226 3.92311 
0.006375 0.00140625 1.79814 6.18096e+21 4.11034e-05 36.4117 8.12438 -1.22642 
0.007125 0.00140625 1.83032 4.56329e+21 3.03459e-05 38.8241 20.7066 2.75603 
0.007875 0.00159375 1.93943 4.46671e+21 2.97036e-05 20.7953 22.0107 -3.48871 
0.008625 0.00159375 2.06939 4.11875e+21 2.73897e-05 17.034 20.4399 -4.39664 
0.007875 0.00178125 2.09394 4.35234e+21 2.89431e-05 19.1457 19.3315 3.13075 
0.008625 0.00178125 1.9442 4.54931e+21 3.02529e-05 10.8273 15.2949 0.364865 
0.006375 0.00234375 1.99378 3.52206e+21 2.34217e-05 4.41367 9.06683 2.04117 
0.007125 0.00234375 1.93056 3.73755e+21 2.48547e-05 6.62568 11.7072 3.7208 
0.006375 0.00253125 1.8636 3.41207e+21 2.26903e-05 0.570634 0.0929856 0.281856 
0.007125 0.00253125 1.98699 3.85863e+21 2.56599e-05 2.6274 8.25643 -0.00242497 
0.006375 0.00346875 2.01523 3.81131e+21 2.53452e-05 0.102458 4.48825 -5.03312 
0.006375 0.00365625 1.97765 3.5288e+21 2.34665e-05 -6.20756 2.20487 1.8615 
0.010125 0.00684375 0 0 0 0 0 0 
0.010125 0.00703125 0 0 0 0 0 0 
0.010125 0.00721875 0 0 0 0 0 0 
0.010125 0.00740625 0 0 0 0 0 0 
0.010125 0.00796875 0 0 0 0 0 0 
0.010125 0.00815625 0 0 0 0 0 0 
0.010125 0.00834375 0 0 0 0 0 0 
0.010125 0.00853125 0 0 0 0 0 0 
0.016875 0.00271875 2.02489 2.71e+21 1.80215e-05 4.66889 0.0435978 1.21656 
0.017625 0.00271875 1.92258 2.77661e+21 1.84644e-05 1.8169 3.74418 0.584672 
0.016875 0.00290625 2.03529 2.86228e+21 1.90342e-05 2.37502 0.709032 0.00317523 
0.017625 0.00290625 2.12043 2.75324e+21 1.8309e-05 0.132201 -0.0391067 -2.62306 
0.014625 0.00384375 1.98661 2.72066e+21 1.80924e-05 -1.13006 -1.42369 -0.0935492 
0.014625 0.00403125 2.0383 2.69519e+21 1.7923e-05 0.519336 0.169893 2.27859 
0.013875 0.00421875 2.03672 2.68271e+21 1.784e-05 1.12392 -4.00785 2.72342 
0.014625 0.00421875 1.9686 2.61296e+21 1.73762e-05 2.3073 -2.79051 -0.625836 
0.014625 0.00440625 2.00194 2.62763e+21 1.74737e-05 -0.0467582 -3.26987 -1.7767 
0.016125 0.00421875 2.00667 2.87318e+21 1.91067e-05 4.12083 -3.59148 -0.451649 
0.016875 0.00421875 1.98646 2.92415e+21 1.94456e-05 1.99861 -0.871045 -1.21357 
0.017625 0.00421875 2.03794 2.56735e+21 1.70729e-05 -1.7769 0.579235 5.11975 
0.016875 0.00440625 2.04309 2.61222e+21 1.73712e-05 -0.0393343 1.99083 -2.97574 
0.015375 0.00459375 2.0178 2.68052e+21 1.78255e-05 -1.04462 -0.197761 -0.282156 
0.016125 0.00459375 1.92974 2.76675e+21 1.83989e-05 -0.227644 1.51723 0.167456 
0.012375 0.00684375 1.90156 2.77826e+21 1.84754e-05 2.21973 4.32678 4.11251 
0.012375 0.00703125 1.88516 2.63174e+21 1.75011e-05 -5.64401 1.59891 -11.2609 
0.012375 0.00759375 1.87343 2.66035e+21 1.76914e-05 11.5535 -0.0600755 -14.1915 
0.012375 0.00778125 1.91056 2.39989e+21 1.59593e-05 1.43739 -8.854 -2.86561 
0.018375 0.00271875 1.93332 2.87235e+21 1.91011e-05 -0.449557 -0.471611 3.72856 
0.019125 0.00271875 1.99349 2.67253e+21 1.77724e-05 5.21889 -3.12169 0.997216 
0.018375 0.00290625 2.05061 2.8467e+21 1.89306e-05 1.28965 -1.59943 3.13027 
0.019125 0.00290625 2.03149 3.01416e+21 2.00441e-05 4.60013 1.23554 2.04983 
0.022875 0.00234375 1.99378 2.709e+21 1.80149e-05 -1.31405 2.9534 1.19843 
0.023625 0.00234375 2.13535 2.8925e+21 1.92351e-05 3.20018 1.15217 -1.23754 
0.022875 0.00253125 1.99435 2.88391e+21 1.9178e-05 0.486911 4.00504 -0.155787 
0.023625 0.00253125 2.03048 2.55305e+21 1.69778e-05 -2.35148 -2.21006 -2.1678 
0.019875 0.00309375 1.97535 2.93757e+21 1.95348e-05 -0.930547 -1.16329 -2.31892 
0.020625 0.00309375 1.98927 2.89001e+21 1.92186e-05 0.924706 -0.684367 7.68531 
0.019875 0.00328125 1.89674 2.67313e+21 1.77763e-05 2.12507 1.13906 2.47327 
0.018375 0.00346875 1.92113 2.77008e+21 1.8421e-05 3.17314 1.11702 3.78538 
0.019125 0.00346875 2.07746 2.75703e+21 1.83342e-05 2.02957 -2.03446 -1.65839 
0.018375 0.00365625 2.02729 2.90042e+21 1.92878e-05 3.4485 -2.06654 -1.2403 
0.018375 0.00384375 2.06821 2.70888e+21 1.80141e-05 -2.09906 0.457567 -1.02076 
0.019125 0.00384375 2.03506 2.86494e+21 1.90518e-05 1.40793 -1.52084 -0.426338 
0.019125 0.00403125 2.03069 2.70642e+21 1.79977e-05 1.36167 0.360629 2.0309 
0.022125 0.00384375 1.96644 2.89144e+21 1.92281e-05 2.00793 -1.62936 0.130758 
0.021375 0.00403125 1.93237 2.63342e+21 1.75123e-05 1.50224 1.44931 -1.23231 
0.022125 0.00403125 1.91836 2.80187e+21 1.86325e-05 5.57615 2.69337 1.8587 
0.021375 0.00421875 2.03494 2.85977e+21 1.90175e-05 3.22414 -2.12325 0.254521 
0.022125 0.00421875 1.97069 2.67735e+21 1.78043e-05 -0.177491 -0.33962 4.40301 
0.018375 0.00459375 1.94884 2.59922e+21 1.72848e-05 2.8368 -3.61144 -1.27478 
0.020625 0.00459375 1.98869 2.82095e+21 1.87593e-05 3.57979 1.55535 -3.82326 
0.020625 0.00478125 2.00523 2.87602e+21 1.91256e-05 4.78831 1.85939 1.24987 
0.021375 0.00459375 2.00975 2.64356e+21 1.75797e-05 2.44388 0.324273 0.726847 
0.022875 0.00459375 1.98276 2.78646e+21 1.853e-05 2.23087 -4.34687 1.87016 
0.022875 0.00496875 1.99274 2.76977e+21 1.8419e-05 4.78204 -1.39851 -0.363512 
0.022875 0.00515625 1.96584 2.72612e+21 1.81287e-05 2.79726 -1.54173 1.88302 
0.018375 0.0132188 0 0 0 0 0 0 
0.018375 0.0134063 0 0 0 0 0 0 
0.018375 0.0143437 0 0 0 0 0 0 
0.018375 0.0145312 0 0 0 0 0 0 
0.018375 0.0150937 0 0 0 0 0 0 
0.018375 0.0152812 0 0 0 0 0 0 
0.018375 0.0154687 0 0 0 0 0 0 
0.018375 0.0156563 0 0 0 0 0 0 
0.018375 0.0169687 0 0 0 0 0 0 
0.018375 0.0171562 0 0 0 0 0 0 
0.018375 0.0173437 0 0 0 0 0 0 
0.018375 0.0175312 0 0 0 0 0 0 
0.018375 0.0180937 0 0 0 0 0 0 
0.018375 0.0182812 0 0 0 0 0 0 
0.018375 0.0184687 0 0 0 0 0 0 
0.018375 0.0186562 0 0 0 0 0 0 
0.018375 0.0192187 0 0 0 0 0 0 
0.018375 0.0194062 0 0 0 0 0 0 
0.018375 0.0203437 0 0 0 0 0 0 
0.018375 0.0205312 0 0 0 0 0 0 
0.0039375 0.00135937 1.9985 1.17225e+22 7.79548e-05 23.5534 3.72604 5.28783 
0.0043125 0.00135937 1.89814 1.04237e+22 6.93177e-05 21.9454 3.60862 0.669606 
0.0039375 0.00145312 1.92584 1.17139e+22 7.78976e-05 19.0202 2.24533 1.55372 
0.0043125 0.00145312 1.90382 1.18385e+22 7.87263e-05 15.5619 1.03888 0.55112 
0.0249375 0.00810938 1.97304 2.83592e+21 1.88589e-05 1.83091 2.43113 -4.30965 
0.0253125 0.00810938 2.10183 2.72427e+21 1.81164e-05 0.101096 -5.38523 1.13248 
0.0249375 0.00820313 1.89387 2.54413e+21 1.69185e-05 4.97937 0.35378 -0.188965 
0.0253125 0.00820313 2.00324 2.48894e+21 1.65515e-05 0.349863 -0.911295 10.2217 
0.0271875 0.00998437 2.02403 2.63888e+21 1.75486e-05 -0.766897 2.19144 1.81871 
0.0275625 0.00998437 2.10183 2.71143e+21 1.8031e-05 -2.29217 5.14976 -1.17637 
0.0271875 0.0100781 2.06226 2.89733e+21 1.92672e-05 1.38368 0.675058 0.252926 
0.0275625 0.0100781 1.98465 2.81198e+21 1.86997e-05 3.33409 0.514334 -0.781203 
0.0286875 0.0103594 2.08916 2.62202e+21 1.74364e-05 -2.05096 -0.459948 -1.05202 
0.0290625 0.0103594 2.05071 2.63513e+21 1.75236e-05 -1.25226 0.0643409 0.591549 
0.0286875 0.0104531 2.07335 2.79339e+21 1.8576e-05 -2.66867 -0.626588 2.5408 
0.0290625 0.0104531 2.14306 2.80205e+21 1.86336e-05 1.59687 -4.47637 -1.66381 
0.0241875 0.0111094 1.96494 2.60393e+21 1.73161e-05 2.74425 -0.16153 -3.25511 
0.0245625 0.0111094 1.93436 2.71803e+21 1.80749e-05 4.56671 -2.83258 -2.03085 
0.0245625 0.0112031 1.94255 2.5983e+21 1.72787e-05 1.26797 -0.959382 -1.02903 
0.0241875 0.0114844 1.95372 2.73177e+21 1.81662e-05 -2.1165 2.21187 2.6182 
0.0245625 0.0114844 2.03055 2.65293e+21 1.7642e-05 1.55474 -0.069073 -3.75525 
0.0241875 0.0115781 2.03188 2.63536e+21 1.75251e-05 1.5157 -0.143763 1.2863 
0.0245625 0.0115781 2.05633 2.77221e+21 1.84352e-05 -0.866811 -1.3495 0.949597 
0.0264375 0.0116719 1.85675 2.66461e+21 1.77197e-05 -0.594136 -1.83154 -0.439574 
0.0268125 0.0116719 2.02621 2.60255e+21 1.7307e-05 -1.68258 -6.13336 3.43249 
0.0264375 0.0117656 2.03605 2.70879e+21 1.80134e-05 -1.89304 3.77883 -0.470005 
0.0268125 0.0117656 1.9986 2.63568e+21 1.75273e-05 -1.14572 -1.30984 3.01761 
0.0294375 0.0116719 2.07076 2.6297e+21 1.74875e-05 -4.89351 -4.97361 -6.16644 
0.0298125 0.0116719 1.94796 2.73443e+21 1.81839e-05 -2.42032 1.6352 4.8165 
0.0294375 0.0117656 1.99874 2.82037e+21 1.87555e-05 2.16454 2.44593 -2.7492 
0.0298125 0.0117656 2.10573 2.76651e+21 1.83973e-05 -5.01952 -2.22927 -1.10665 
0.0249375 0.0120469 1.9848 2.6681e+21 1.77428e-05 -1.67806 2.16931 4.44543 
0.0253125 0.0120469 1.98035 2.58167e+21 1.71681e-05 0.676572 0.661036 3.07597 
0.0249375 0.0121406 2.08053 2.83767e+21 1.88705e-05 0.793181 -1.90854 -2.70579 
0.0253125 0.0121406 2.0198 2.72207e+21 1.81018e-05 0.978903 0.212253 1.51026 
0.0241875 0.0124219 2.08369 2.69324e+21 1.791e-05 3.53026 -2.22187 2.83905 
0.0245625 0.0124219 1.97979 2.52559e+21 1.67952e-05 0.706873 0.277512 2.90379 
0.0241875 0.0125156 1.93306 2.90818e+21 1.93394e-05 0.646586 2.38798 -1.59392 
0.0245625 0.0125156 1.96168 2.68392e+21 1.7848e-05 1.94683 0.980587 -1.57348 
0.0249375 0.0124219 2.08824 2.83173e+21 1.8831e-05 3.52392 0.857346 2.02358 
0.0253125 0.0124219 2.00798 2.70782e+21 1.8007e-05 5.12678 -1.94848 4.76001 
0.0249375 0.0125156 2.00941 2.71285e+21 1.80405e-05 -2.34534 1.99162 0.627145 
0.0253125 0.0125156 2.0198 2.89733e+21 1.92672e-05 3.1688 -2.08486 -0.362468 
0.0256875 0.0124219 2.05868 2.72968e+21 1.81524e-05 4.75413 0.626189 1.94609 
0.0260625 0.0124219 2.02744 2.71511e+21 1.80555e-05 -0.140462 3.92544 0.601474 
0.0256875 0.0125156 2.06571 2.48136e+21 1.6501e-05 1.37847 0.767898 3.1976 
0.0260625 0.0125156 2.0156 2.77073e+21 1.84253e-05 4.58084 -1.2716 2.61419 
0.0290625 0.0120469 1.98769 2.74701e+21 1.82676e-05 2.40258 -2.58085 -2.74619 
0.0286875 0.0121406 1.99875 2.66614e+21 1.77298e-05 1.89332 -1.88825 -1.49712 
0.0290625 0.0121406 1.95847 2.73326e+21 1.81762e-05 3.46081 -1.02283 -0.256663 
0.0294375 0.0124219 1.90708 2.87911e+21 1.9146e-05 -0.674334 -2.67712 2.65683 
0.0298125 0.0124219 2.01833 2.78071e+21 1.84917e-05 1.08184 -3.99129 0.43785 
0.0294375 0.0125156 2.1082 2.73094e+21 1.81607e-05 0.400086 0.589015 -0.597932 
0.0298125 0.0125156 2.08061 2.64413e+21 1.75834e-05 1.9823 2.68071 2.45961 
0.0245625 0.0129844 2.0647 2.8276e+21 1.88035e-05 2.11508 0.490027 2.69708 
0.0241875 0.0130781 2.00964 2.74848e+21 1.82774e-05 0.601996 1.27191 1.39155 
0.0245625 0.0130781 1.99473 2.78656e+21 1.85306e-05 0.162851 -0.899831 1.45106 
0.0241875 0.0131719 2.00852 2.61894e+21 1.74159e-05 1.97545 1.38085 0.652738 
0.0245625 0.0131719 1.96006 2.70142e+21 1.79645e-05 -0.773073 -1.29364 2.9829 
0.0241875 0.0132656 2.03305 2.67551e+21 1.77921e-05 0.160819 0.954023 -0.270686 
0.0245625 0.0132656 1.97837 2.58678e+21 1.72021e-05 3.05742 -0.471039 -1.17685 
0.0260625 0.0131719 2.10464 2.66018e+21 1.76902e-05 -0.909157 0.377475 1.62154 
0.0256875 0.0132656 1.9992 2.81201e+21 1.86999e-05 1.07727 -0.595692 2.35357 
0.0260625 0.0132656 1.97991 2.6209e+21 1.7429e-05 -1.36222 0.545869 2.02586 
0.0271875 0.0127969 2.00263 2.91855e+21 1.94084e-05 2.32821 2.45809 -1.99102 
0.0275625 0.0127969 2.08838 2.75582e+21 1.83262e-05 1.1912 1.94091 -2.43114 
0.0271875 0.0128906 1.99185 2.77441e+21 1.84498e-05 1.39166 0.474113 -1.47588 
0.0275625 0.0128906 1.99072 2.56018e+21 1.70252e-05 2.80259 2.44343 -2.06995 
0.0294375 0.0129844 1.97953 2.89035e+21 1.92209e-05 1.19742 2.04824 5.51052 
0.0298125 0.0129844 2.03388 2.80668e+21 1.86644e-05 0.558022 1.04531 1.69198 
0.0294375 0.0130781 2.00049 2.97002e+21 1.97506e-05 1.95529 1.20509 -0.650896 
0.0298125 0.0130781 1.9741 2.84194e+21 1.88989e-05 1.24378 4.48542 -0.77308 
0.0279375 0.0133594 1.97679 2.62623e+21 1.74644e-05 1.05035 -0.0633518 -3.46381 
0.0283125 0.0133594 1.97284 2.62962e+21 1.7487e-05 2.47613 -1.34862 2.83344 
0.0283125 0.0134531 1.94701 2.7459e+21 1.82602e-05 2.20357 0.236371 0.446794 
0.0286875 0.0133594 2.1509 2.69739e+21 1.79377e-05 1.35653 -2.20233 -1.91759 
0.0290625 0.0133594 1.97569 2.72789e+21 1.81405e-05 -2.86652 5.86213 0.56764 
0.0286875 0.0134531 2.00253 2.69206e+21 1.79022e-05 -3.69457 0.510348 1.25288 
0.0290625 0.0134531 1.95045 2.8132e+21 1.87078e-05 1.99373 -0.451732 0.540448 
0.0294375 0.0133594 2.01736 2.79228e+21 1.85686e-05 0.330844 -1.36108 1.57403 
0.0298125 0.0133594 1.97477 2.63979e+21 1.75546e-05 5.07083 0.543353 0.276897 
0.0294375 0.0134531 2.12901 2.73244e+21 1.81707e-05 0.345437 2.3945 0.269925 
0.0241875 0.0137344 1.99771 2.6633e+21 1.77109e-05 -1.65538 1.41302 3.17773 
0.0245625 0.0137344 1.99235 2.61386e+21 1.73822e-05 4.14844 0.362597 0.300322 
0.0241875 0.0138281 2.0213 2.60923e+21 1.73514e-05 1.54231 0.497145 -2.78585 
0.0245625 0.0138281 2.04052 2.65834e+21 1.7678e-05 1.23934 -1.02037 -0.777337 
0.0249375 0.0137344 2.01723 2.76218e+21 1.83685e-05 2.77463 1.5014 1.56399 
0.0253125 0.0137344 1.88885 2.5809e+21 1.7163e-05 0.545873 1.34331 3.72883 
0.0249375 0.0138281 1.88697 2.76637e+21 1.83964e-05 3.29237 1.03137 0.217496 
0.0253125 0.0138281 2.03284 2.58304e+21 1.71772e-05 -1.81775 -0.710071 -1.84251 
0.0256875 0.0137344 1.99973 2.63693e+21 1.75356e-05 2.8062 1.51987 -0.258393 
0.0260625 0.0137344 2.00744 2.6633e+21 1.77109e-05 1.13103 -0.47372 0.807327 
0.0256875 0.0138281 1.96589 2.69435e+21 1.79174e-05 0.176756 -1.81527 -0.0504931 
0.0260625 0.0138281 1.97112 2.77292e+21 1.84399e-05 2.0073 1.6206 -2.13432 
0.0253125 0.0139219 2.03659 2.63393e+21 1.75157e-05 0.582631 -1.82662 0.668 
0.0249375 0.0140156 2.04342 2.62278e+21 1.74415e-05 -0.77684 -0.290978 0.469101 
0.0253125 0.0140156 1.94723 2.67123e+21 1.77637e-05 0.38975 1.38786 -3.71667 
0.0256875 0.0139219 1.89002 2.87131e+21 1.90942e-05 1.4672 3.31986 5.98276 
0.0260625 0.0139219 2.03403 2.62743e+21 1.74724e-05 -1.31668 -2.24303 -3.25386 
0.0256875 0.0140156 1.92461 2.72937e+21 1.81503e-05 2.76455 2.65075 -2.69817 
0.0260625 0.0140156 1.90829 2.72291e+21 1.81073e-05 1.38685 -0.803645 3.72976 
0.0256875 0.0141094 2.01155 2.70802e+21 1.80083e-05 -1.8196 3.14468 1.14506 
0.0260625 0.0141094 1.94814 2.6631e+21 1.77096e-05 -1.55196 -0.0698509 0.0135641 
0.0260625 0.0142031 2.05305 2.68377e+21 1.78471e-05 3.40348 1.06402 3.74211 
0.0271875 0.0135469 2.03609 2.69348e+21 1.79116e-05 -0.933233 -1.61885 1.50054 
0.0275625 0.0135469 2.03018 2.76366e+21 1.83783e-05 2.43355 -3.39244 -6.16757 
0.0271875 0.0136406 2.04802 2.56545e+21 1.70602e-05 -0.735118 -2.28586 -0.878098 
0.0275625 0.0136406 1.98772 2.78781e+21 1.85389e-05 0.794019 0.790585 1.51797 
0.0271875 0.0141094 1.9393 2.7369e+21 1.82004e-05 0.0427354 -0.747592 -1.11339 
0.0275625 0.0141094 1.95944 2.62139e+21 1.74323e-05 0.508997 -1.24243 1.95655 
0.0271875 0.0142031 2.04266 2.58496e+21 1.719e-05 -0.102591 1.8946 -0.0550749 
0.0275625 0.0142031 2.09099 2.81764e+21 1.87373e-05 -1.17401 4.88764 -2.47681 
0.0294375 0.0139219 2.00805 2.79002e+21 1.85536e-05 0.664796 2.43616 -1.24674 
0.0298125 0.0139219 2.02281 2.67621e+21 1.77968e-05 0.268994 0.100718 0.669973 
0.0294375 0.0140156 2.07913 2.82627e+21 1.87947e-05 -2.61608 -0.299974 4.3199 
0.0298125 0.0140156 1.93102 2.80366e+21 1.86443e-05 -0.225979 0.424407 -0.76567 
0.0294375 0.0141094 2.03113 2.62781e+21 1.74749e-05 2.1953 -0.346853 -2.49979 
0.0298125 0.0141094 2.05093 2.76257e+21 1.83711e-05 0.0507298 0.20277 1.00209 
0.0294375 0.0142031 2.07727 2.59134e+21 1.72324e-05 3.88532 1.81568 1.06501 
0.0249375 0.0146719 1.93801 2.6906e+21 1.78925e-05 3.57211 -1.17486 2.00315 
0.0253125 0.0146719 1.92963 2.78933e+21 1.85491e-05 2.21382 -4.05617 3.44102 
0.0253125 0.0147656 2.02157 2.7103e+21 1.80235e-05 -2.73746 0.676343 -1.58814 
0.0241875 0.0148594 2.01644 2.67492e+21 1.77882e-05 0.611359 -2.16036 -0.439569 
0.0245625 0.0148594 1.94476 2.68102e+21 1.78288e-05 -1.6294 -1.72518 -0.076912 
0.0245625 0.0149531 1.91479 2.67329e+21 1.77774e-05 2.27449 1.50696 -0.791378 
0.0256875 0.0148594 1.92712 2.78765e+21 1.85379e-05 3.84973 0.130907 2.87895 
0.0260625 0.0148594 2.05978 2.59571e+21 1.72615e-05 -0.626118 1.07079 2.45813 
0.0256875 0.0149531 2.07963 2.87613e+21 1.91263e-05 1.81723 2.33398 4.26826 
0.0260625 0.0149531 2.02701 2.75806e+21 1.83411e-05 -0.865956 -3.30414 -3.38806 
0.0268125 0.0148594 1.9693 2.77546e+21 1.84568e-05 3.43011 -1.4039 2.40508 
0.0264375 0.0149531 1.94566 2.60366e+21 1.73143e-05 0.350196 0.0318627 1.02655 
0.0268125 0.0149531 1.949 2.82769e+21 1.88042e-05 1.01671 -0.0782845 3.24399 
0.0279375 0.0144844 2.02945 2.6973e+21 1.7937e-05 -4.29376 4.3576 -0.359632 
0.0283125 0.0144844 1.97315 2.65354e+21 1.7646e-05 -0.154037 0.171744 -0.897968 
0.0279375 0.0145781 1.91469 2.72964e+21 1.81521e-05 2.71835 1.63069 -3.49121 
0.0283125 0.0145781 1.96239 2.52158e+21 1.67685e-05 2.40084 -3.54485 1.65117 
0.0294375 0.0143906 2.06796 2.59847e+21 1.72798e-05 -3.57413 -2.26949 0.988446 
0.0279375 0.0148594 1.91852 2.67797e+21 1.78085e-05 -2.45063 2.23602 4.50276 
0.0283125 0.0148594 1.98012 2.58962e+21 1.7221e-05 -0.173657 3.20978 0.0058005 
0.0279375 0.0149531 1.99058 2.59155e+21 1.72338e-05 3.66033 2.41634 0.432699 
0.0283125 0.0149531 1.97568 2.60669e+21 1.73345e-05 4.14914 1.96273 -2.51283 