ITEM: TIMESTEP
500000
ITEM: NUMBER OF CELLS
39544
ITEM: BOX BOUNDS oo ao pp
0 0.12
0 0.03
-0.1 0.1
ITEM: CELLS xc yc f_out[1] f_out[2] f_out[3] f_out[4] f_out[5] f_out[6] 
0.003 0.00375 0 0 0 0 0 0 
0.003 0.00525 0 0 0 0 0 0 
0.003 0.00675 0 0 0 0 0 0 
0.003 0.00825 0 0 0 0 0 0 
0.003 0.00975 0 0 0 0 0 0 
0.003 0.01125 0 0 0 0 0 0 
0.003 0.01275 0 0 0 0 0 0 
0.003 0.01425 0 0 0 0 0 0 
0.003 0.01575 0 0 0 0 0 0 
0.003 0.01725 0 0 0 0 0 0 
0.003 0.01875 0 0 0 0 0 0 
0.003 0.02025 0 0 0 0 0 0 
0.003 0.02175 0 0 0 0 0 0 
0.003 0.02325 0 0 0 0 0 0 
0.027 0.02325 0 0 0 0 0 0 
0.003 0.02475 0 0 0 0 0 0 
0.027 0.02475 0 0 0 0 0 0 
0.003 0.02625 0 0 0 0 0 0 
0.027 0.02625 0 0 0 0 0 0 
0.003 0.02775 0 0 0 0 0 0 
0.027 0.02775 0 0 0 0 0 0 
0.003 0.02925 0 0 0 0 0 0 
0.027 0.02925 0 0 0 0 0 0 
0.009 0.01425 0 0 0 0 0 0 
0.009 0.01575 0 0 0 0 0 0 
0.009 0.01725 0 0 0 0 0 0 
0.009 0.01875 0 0 0 0 0 0 
0.009 0.02025 0 0 0 0 0 0 
0.009 0.02175 0 0 0 0 0 0 
0.009 0.02325 0 0 0 0 0 0 
0.009 0.02475 0 0 0 0 0 0 
0.009 0.02625 0 0 0 0 0 0 
0.009 0.02775 0 0 0 0 0 0 
0.009 0.02925 0 0 0 0 0 0 
0.015 0.01425 0 0 0 0 0 0 
0.015 0.01575 0 0 0 0 0 0 
0.015 0.01725 0 0 0 0 0 0 
0.015 0.01875 0 0 0 0 0 0 
0.015 0.02025 0 0 0 0 0 0 
0.015 0.02175 0 0 0 0 0 0 
0.015 0.02325 0 0 0 0 0 0 
0.015 0.02475 0 0 0 0 0 0 
0.015 0.02625 0 0 0 0 0 0 
0.015 0.02775 0 0 0 0 0 0 
0.015 0.02925 0 0 0 0 0 0 
0.021 0.02325 0 0 0 0 0 0 
0.021 0.02475 0 0 0 0 0 0 
0.021 0.02625 0 0 0 0 0 0 
0.021 0.02775 0 0 0 0 0 0 
0.021 0.02925 0 6.04577e+15 4.02044e-11 -44.9445 3.98361 -8.82485 
0.0015 0.000375 0 0 0 0 0 0 
0.0015 0.001125 0 0 0 0 0 0 
0.0015 0.001875 0 0 0 0 0 0 
0.0015 0.002625 0 0 0 0 0 0 
0.0045 0.002625 0 0 0 0 0 0 
0.0255 0.022125 0 0 0 0 0 0 
0.0285 0.022125 0 0 0 0 0 0 
0.0105 0.000375 1.95447 5.25311e+21 3.49332e-05 7.9675 2.14727 -0.745646 
0.0075 0.013125 0 0 0 0 0 0 
0.0105 0.013125 0 0 0 0 0 0 
0.0135 0.013125 0 0 0 0 0 0 
0.0165 0.013125 0 0 0 0 0 0 
0.0195 0.022125 0 0 0 0 0 0 
0.0225 0.022125 0 0 0 0 0 0 
0.00375 0.0001875 1.914 1.29296e+22 8.59818e-05 28.9972 -0.495236 -4.05387 
0.00525 0.0001875 1.75092 1.02161e+22 6.7937e-05 48.6426 0.556008 0.537174 
0.00375 0.0020625 0 0 0 0 0 0 
0.00525 0.0020625 0 0 0 0 0 0 
0.00675 0.0001875 1.82185 6.92642e+21 4.60607e-05 54.1918 1.95851 0.470268 
0.00825 0.0001875 1.84045 4.75343e+21 3.16103e-05 26.5527 -1.87676 -6.77712 
0.00825 0.0005625 1.99185 4.78361e+21 3.1811e-05 27.9034 8.82812 1.12383 
0.00975 0.0016875 2.06703 4.40844e+21 2.93161e-05 2.2297 13.9635 -2.4402 
0.01125 0.0016875 0 0 0 0 0 0 
0.01125 0.0020625 0 0 0 0 0 0 
0.01125 0.0031875 0 0 0 0 0 0 
0.01125 0.0035625 0 0 0 0 0 0 
0.01125 0.0046875 0 0 0 0 0 0 
0.01125 0.0050625 0 0 0 0 0 0 
0.01125 0.0054375 0 0 0 0 0 0 
0.01125 0.0058125 0 0 0 0 0 0 
0.01125 0.0061875 0 0 0 0 0 0 
0.01125 0.0065625 0 0 0 0 0 0 
0.01125 0.0069375 0 0 0 0 0 0 
0.01125 0.0073125 0 0 0 0 0 0 
0.01125 0.0076875 0 0 0 0 0 0 
0.01125 0.0080625 0 0 0 0 0 0 
0.01125 0.0084375 0 0 0 0 0 0 
0.01125 0.0088125 0 0 0 0 0 0 
0.01125 0.0091875 0 0 0 0 0 0 
0.01125 0.0024375 0 0 0 0 0 0 
0.01125 0.0028125 0 0 0 0 0 0 
0.01125 0.0039375 0 0 0 0 0 0 
0.01125 0.0043125 0 0 0 0 0 0 
0.01275 0.0016875 2.00647 2.39243e+21 1.59097e-05 2.36881 0.417143 -2.16719 
0.01275 0.0020625 1.99902 2.45388e+21 1.63183e-05 1.7005 0.913095 1.30766 
0.02475 0.0009375 2.02312 2.35106e+21 1.56346e-05 4.37404 1.61681 -1.44066 
0.01875 0.0009375 2.10417 2.51404e+21 1.67183e-05 3.37808 -2.9785 -5.16729 
0.02025 0.0009375 2.00089 2.46876e+21 1.64173e-05 -1.71016 -1.25115 2.56676 
0.02175 0.0009375 2.00597 2.508e+21 1.66782e-05 1.27186 0.0108328 0.640845 
0.02325 0.0009375 2.09475 2.45367e+21 1.63169e-05 -1.83547 0.777971 2.01986 
0.003375 0.00046875 1.93559 1.31523e+22 8.74631e-05 27.6908 -0.903497 -2.48226 
0.004125 0.00046875 1.84712 1.30621e+22 8.68631e-05 35.89 2.67784 -3.60769 
0.003375 0.00065625 1.80092 1.35699e+22 9.02397e-05 26.3803 -7.06127 3.75728 
0.004125 0.00065625 1.87331 1.27448e+22 8.47529e-05 36.8716 -0.0248269 0.339964 
0.004875 0.00046875 1.65093 1.09616e+22 7.28943e-05 41.6452 -2.43785 -2.73823 
0.005625 0.00046875 1.75102 8.71613e+21 5.79622e-05 51.3964 3.12908 -4.39395 
0.004875 0.00065625 1.87105 1.05718e+22 7.03024e-05 43.7581 -1.93656 -1.08624 
0.005625 0.00065625 1.85073 9.50254e+21 6.31919e-05 46.7374 2.19093 1.59715 
0.003375 0.00103125 1.86027 1.3083e+22 8.70021e-05 24.9431 -3.13983 -0.474106 
0.004875 0.00084375 1.87118 1.02345e+22 6.80597e-05 39.3762 0.973417 -0.359734 
0.005625 0.00084375 1.77441 8.97367e+21 5.96749e-05 46.2928 0.698609 0.965144 
0.004875 0.00103125 2.02554 1.10076e+22 7.32009e-05 35.056 -0.246256 -0.178197 
0.005625 0.00103125 1.87376 8.51639e+21 5.6634e-05 40.5019 -3.20803 0.190463 
0.004875 0.00121875 1.88125 9.92706e+21 6.6015e-05 27.5066 1.32309 -0.741042 
0.003375 0.00159375 2.00956 1.39158e+22 9.25399e-05 14.9939 -2.08195 1.82799 
0.004125 0.00159375 1.96637 1.23615e+22 8.22043e-05 11.6503 1.53145 -0.776843 
0.003375 0.00178125 0 0 0 0 0 0 
0.004125 0.00178125 0 0 0 0 0 0 
0.027375 0.00346875 1.98037 2.31329e+21 1.53834e-05 6.65724 3.46697 4.11174 
0.028125 0.00346875 1.79293 2.33287e+21 1.55136e-05 3.69909 2.32998 3.20912 
0.027375 0.00365625 2.03464 2.60326e+21 1.73117e-05 -1.09425 2.51247 -1.00867 
0.028125 0.00365625 2.04904 2.55064e+21 1.69617e-05 2.57641 3.71946 1.17688 
0.024375 0.00515625 1.99832 2.46492e+21 1.63917e-05 1.15315 3.37198 -0.888821 
0.028875 0.00459375 2.0393 2.48835e+21 1.65475e-05 2.64252 4.86904 -1.89342 
0.029625 0.00459375 2.04517 2.48835e+21 1.65475e-05 6.2017 1.4634 -3.8251 
0.028875 0.00496875 2.12985 2.49416e+21 1.65862e-05 4.43725 1.32699 -1.79345 
0.029625 0.00496875 1.95939 2.46683e+21 1.64044e-05 -0.303715 -0.487572 -0.0976577 
0.024375 0.00534375 1.99692 2.4928e+21 1.65771e-05 0.866226 -1.70837 -0.852948 
0.025875 0.00590625 2.01372 2.41636e+21 1.60688e-05 1.45297 -0.679249 -2.74472 
0.028875 0.00571875 2.0041 2.47975e+21 1.64903e-05 2.93893 -0.461467 4.30843 
0.024375 0.0216562 2.04497 2.66802e+21 1.77423e-05 -1.83299 3.01849 0.704949 
0.025125 0.0216562 1.93296 2.37475e+21 1.57921e-05 -1.62805 -1.3337 -0.872959 
0.025875 0.0216562 2.03564 2.67875e+21 1.78137e-05 -3.35463 -0.343827 0.833719 
0.026625 0.0216562 1.91926 2.49635e+21 1.66007e-05 -0.956703 1.66984 0.171662 
0.027375 0.0216562 1.91461 2.4892e+21 1.65532e-05 2.6049 1.74495 -0.144136 
0.028125 0.0216562 2.01969 2.5035e+21 1.66483e-05 1.26534 -0.680652 0.930121 
0.028875 0.0216562 2.10669 2.47847e+21 1.64818e-05 0.676837 -6.01648 -1.4801 
0.029625 0.0216562 2.04038 2.58934e+21 1.72191e-05 6.39773 -0.705857 4.00722 
0.006375 0.00121875 1.7785 6.69543e+21 4.45246e-05 44.8755 7.03875 0.944788 
0.007125 0.00121875 1.82177 4.84745e+21 3.22356e-05 42.3805 19.626 -1.32484 
0.006375 0.00140625 1.8568 6.55118e+21 4.35653e-05 38.1266 8.9766 2.69892 
0.007125 0.00140625 1.82374 4.59548e+21 3.056e-05 35.2521 18.1932 1.79812 
0.007875 0.00121875 2.02137 4.50386e+21 2.99507e-05 28.8704 16.4742 2.96521 
0.008625 0.00121875 1.94291 4.68958e+21 3.11857e-05 13.9244 12.9269 -2.02948 
0.007875 0.00140625 1.99137 4.32989e+21 2.87938e-05 27.8646 17.4341 0.0975786 
0.008625 0.00140625 1.92868 4.55524e+21 3.02924e-05 18.4596 21.1589 -3.00063 
0.006375 0.00159375 1.87594 5.06234e+21 3.36645e-05 22.5785 13.4133 1.83745 
0.007125 0.00159375 1.86681 4.05484e+21 2.69647e-05 25.5524 24.6491 -1.26464 
0.006375 0.00178125 2.03982 3.60975e+21 2.40048e-05 2.7097 12.854 2.72999 
0.007125 0.00178125 1.96077 3.7805e+21 2.51404e-05 17.7621 17.8552 4.36036 
0.007875 0.00159375 1.99553 4.28918e+21 2.85231e-05 21.0066 23.1454 -1.34129 
0.008625 0.00159375 2.01399 4.58033e+21 3.04592e-05 11.3237 18.5136 0.911295 
0.007875 0.00178125 1.91638 4.12996e+21 2.74642e-05 17.9411 18.5847 -0.34783 
0.008625 0.00178125 1.92426 4.09184e+21 2.72107e-05 6.03913 19.4404 1.01312 
0.007875 0.00196875 1.91372 4.10455e+21 2.72952e-05 15.1615 16.6492 -1.24715 
0.008625 0.00196875 1.92686 4.05856e+21 2.69894e-05 5.65374 20.2142 4.55322 
0.007875 0.00215625 1.95602 3.92084e+21 2.60736e-05 9.74279 20.2637 -0.0395276 
0.008625 0.00215625 1.99526 3.95758e+21 2.63179e-05 7.66364 18.5214 2.12993 
0.007875 0.00234375 2.0841 3.74238e+21 2.48868e-05 7.3155 19.3702 -6.31584 
0.008625 0.00234375 1.95456 3.80999e+21 2.53364e-05 1.96765 22.0098 -3.65751 
0.007875 0.00253125 2.00057 3.58589e+21 2.38462e-05 0.672372 20.6888 -2.29927 
0.007875 0.00271875 1.83824 3.80482e+21 2.53021e-05 0.629972 17.9114 -0.846902 
0.007875 0.00290625 1.93104 3.46589e+21 2.30482e-05 -2.13183 16.092 -8.01797 
0.008625 0.00290625 1.9502 3.78132e+21 2.51458e-05 -0.398971 19.2189 -2.56563 
0.006375 0.00309375 1.99761 3.2444e+21 2.15753e-05 -3.03994 4.7749 -0.0991503 
0.006375 0.00328125 1.86108 3.13015e+21 2.08155e-05 -3.53378 6.88585 -0.72995 
0.007125 0.00328125 1.99003 3.24225e+21 2.15609e-05 -3.2901 7.01519 0.522659 
0.007875 0.00309375 1.8749 3.54849e+21 2.35975e-05 -4.33879 12.9802 -1.41827 
0.006375 0.00346875 1.94608 3.10166e+21 2.0626e-05 2.73849 2.81735 -3.1527 
0.007125 0.00346875 2.02105 3.24644e+21 2.15888e-05 -0.262915 6.8848 2.63748 
0.006375 0.00365625 2.01561 3.5288e+21 2.34665e-05 -5.02744 6.35695 -3.62661 
0.007875 0.00346875 1.97084 3.51399e+21 2.3368e-05 -0.601026 12.2358 -1.16719 
0.008625 0.00403125 1.9598 3.55989e+21 2.36733e-05 -0.659831 17.1591 0.344376 
0.006375 0.00421875 2.05906 3.16392e+21 2.10401e-05 0.571907 5.02446 0.892673 
0.006375 0.00440625 2.00655 3.20748e+21 2.13297e-05 -0.0472907 2.85901 -1.15307 
0.006375 0.00459375 1.95874 3.12738e+21 2.07971e-05 -0.438087 5.84755 -0.357518 
0.006375 0.00478125 2.00295 3.15564e+21 2.0985e-05 3.89507 4.73787 -2.78005 
0.006375 0.00496875 1.93512 3.19031e+21 2.12155e-05 -1.11402 3.31451 -2.20124 
0.006375 0.00515625 2.11523 2.92202e+21 1.94314e-05 -1.41633 3.76794 1.40124 
0.009375 0.00459375 1.96554 3.44455e+21 2.29063e-05 2.4207 9.64398 -1.27663 
0.010125 0.00459375 0 0 0 0 0 0 
0.009375 0.00478125 1.95574 3.33627e+21 2.21862e-05 -2.63419 4.45126 -0.912118 
0.010125 0.00478125 0 0 0 0 0 0 
0.006375 0.00534375 2.02093 3.25632e+21 2.16545e-05 -1.03433 2.61029 -1.1318 
0.006375 0.00553125 1.93219 2.98096e+21 1.98234e-05 -0.649544 6.57223 -1.46866 
0.006375 0.00571875 1.89418 3.0465e+21 2.02592e-05 -1.29506 2.33115 2.33522 
0.006375 0.00590625 1.9854 3.20488e+21 2.13125e-05 0.74468 7.75751 -1.13896 
0.009375 0.00534375 2.00998 3.32075e+21 2.2083e-05 -2.83921 9.79817 0.0220531 
0.010125 0.00534375 0 0 0 0 0 0 
0.010125 0.00553125 0 0 0 0 0 0 
0.006375 0.00628125 1.92716 3.00003e+21 1.99502e-05 4.48284 7.42805 1.25433 
0.006375 0.00646875 1.98888 3.09022e+21 2.055e-05 -0.256063 3.61711 -3.13143 
0.006375 0.00703125 1.97852 3.03314e+21 2.01704e-05 -0.773323 1.37129 -2.84394 
0.010125 0.00759375 0 0 0 0 0 0 
0.010125 0.00778125 0 0 0 0 0 0 
0.010125 0.00946875 1.96745 2.84535e+21 1.89216e-05 2.72228 -0.395278 -3.44592 
0.010875 0.00946875 2.10664 2.7496e+21 1.82848e-05 0.80733 -6.19826 -4.736 
0.011625 0.00946875 2.0343 2.66068e+21 1.76935e-05 0.757159 -1.50976 2.9336 
0.015375 0.00309375 2.08834 2.52053e+21 1.67615e-05 -0.563621 0.597939 1.29753 
0.016125 0.00309375 2.05397 2.35957e+21 1.56911e-05 4.58301 -5.36844 -0.593021 
0.015375 0.00328125 1.95151 2.37305e+21 1.57808e-05 1.84088 -5.66689 1.09372 
0.016125 0.00328125 2.01297 2.43169e+21 1.61707e-05 -1.79429 -4.76589 -1.53754 
0.013875 0.00384375 2.05542 2.45272e+21 1.63106e-05 4.05678 2.08781 -0.607709 
0.014625 0.00384375 1.93302 2.50866e+21 1.66826e-05 0.706929 -5.31203 2.40036 
0.014625 0.00403125 2.06072 2.3246e+21 1.54586e-05 0.571327 -0.464144 -5.0519 
0.015375 0.00421875 1.985 2.5137e+21 1.67161e-05 0.437248 0.463329 -1.07826 
0.016125 0.00421875 1.93788 2.4198e+21 1.60917e-05 2.39884 -2.19572 -0.690238 
0.015375 0.00440625 2.00936 2.21666e+21 1.47408e-05 2.73032 1.71083 0.586885 
0.016125 0.00440625 2.07539 2.61736e+21 1.74054e-05 1.39453 -1.3329 0.956758 
0.013875 0.00515625 1.96773 2.54175e+21 1.69026e-05 0.681213 -1.48647 -2.11821 
0.014625 0.00515625 1.97256 2.35737e+21 1.56765e-05 1.99091 -1.90376 -1.66483 
0.016875 0.00459375 2.01067 2.64356e+21 1.75797e-05 1.51926 -1.94964 -4.74156 
0.016875 0.00478125 2.05575 2.47362e+21 1.64496e-05 -0.148056 -3.48774 -1.86626 
0.016125 0.00496875 2.04468 2.51694e+21 1.67376e-05 1.59226 -0.244507 0.208758 
0.016875 0.00496875 1.9145 2.54199e+21 1.69043e-05 -1.00999 0.994352 2.44611 
0.013875 0.00534375 2.00287 2.51822e+21 1.67461e-05 1.05328 -1.29678 0.192647 
0.012375 0.00871875 1.62425 2.58968e+21 1.72214e-05 -5.98572 2.69942 6.8187 
0.012375 0.00890625 1.93209 2.42079e+21 1.60983e-05 4.14894 0.666058 5.45651 
0.012375 0.00946875 2.00761 2.75709e+21 1.83346e-05 -1.43703 2.152 -2.88464 
0.018375 0.00346875 1.94801 2.4438e+21 1.62513e-05 2.55195 1.42242 1.17817 
0.019125 0.00346875 2.01613 2.45686e+21 1.63381e-05 2.32732 -0.778441 -1.99887 
0.018375 0.00365625 2.07196 2.64969e+21 1.76205e-05 2.15778 -1.88153 2.79599 
0.019125 0.00365625 1.95646 2.51968e+21 1.67559e-05 -0.150733 -0.530157 0.597796 
0.019875 0.00384375 1.95474 2.39972e+21 1.59581e-05 1.86549 0.0701196 -0.666983 
0.020625 0.00384375 1.98735 2.40855e+21 1.60169e-05 2.97295 -3.42822 0.763195 
0.019875 0.00403125 2.04542 2.34987e+21 1.56266e-05 4.47051 -1.80833 1.18852 
0.020625 0.00403125 2.02993 2.51832e+21 1.67468e-05 0.847909 1.71862 -1.02128 
0.019875 0.00421875 1.86053 2.5754e+21 1.71264e-05 1.23546 -0.810538 -0.987232 
0.020625 0.00421875 1.90262 2.48419e+21 1.65199e-05 0.807493 2.49552 -1.90937 
0.020625 0.00440625 2.04384 2.50434e+21 1.66539e-05 1.87307 -2.70296 3.92657 
0.023625 0.00459375 2.06574 2.44647e+21 1.6269e-05 -0.143895 2.95876 -0.327168 
0.023625 0.00478125 2.0808 2.52569e+21 1.67959e-05 0.466954 -1.25273 2.22991 
0.018375 0.0132188 0 0 0 0 0 0 
0.018375 0.0134063 0 0 0 0 0 0 
0.018375 0.0147187 0 0 0 0 0 0 
0.018375 0.0149062 0 0 0 0 0 0 
0.018375 0.0154687 0 0 0 0 0 0 
0.018375 0.0156563 0 0 0 0 0 0 
0.018375 0.0169687 0 0 0 0 0 0 
0.018375 0.0171562 0 0 0 0 0 0 
0.018375 0.0173437 0 0 0 0 0 0 
0.018375 0.0175312 0 0 0 0 0 0 
0.018375 0.0177187 0 0 0 0 0 0 
0.018375 0.0179062 0 0 0 0 0 0 
0.018375 0.0184687 0 0 0 0 0 0 
0.018375 0.0186562 0 0 0 0 0 0 
0.018375 0.0192187 0 0 0 0 0 0 
0.018375 0.0194062 0 0 0 0 0 0 
0.018375 0.0195938 0 0 0 0 0 0 
0.018375 0.0197812 0 0 0 0 0 0 
0.018375 0.0199687 0 0 0 0 0 0 
0.018375 0.0201562 0 0 0 0 0 0 
0.018375 0.0203437 0 0 0 0 0 0 
0.018375 0.0205312 0 0 0 0 0 0 
0.018375 0.0210937 0 0 0 0 0 0 
0.018375 0.0212812 0 0 0 0 0 0 
0.019875 0.0216562 1.9925 2.45343e+21 1.63153e-05 3.26313 -4.72095 -3.4258 
0.020625 0.0216562 2.01963 2.39979e+21 1.59586e-05 -2.64734 -2.31821 -2.91987 
0.021375 0.0216562 1.99852 2.47847e+21 1.64818e-05 4.12126 0.152297 5.07818 
0.022125 0.0216562 2.09288 2.5035e+21 1.66483e-05 0.586012 -2.58978 -0.901874 
0.022875 0.0216562 1.87478 2.46416e+21 1.63867e-05 2.55166 -2.10041 0.89526 
0.023625 0.0216562 1.95625 2.49277e+21 1.6577e-05 3.59196 -2.16822 -2.57618 
0.02775 0.0009375 2.03554 2.62872e+21 1.7481e-05 1.64577 1.05349 -1.59617 
0.02925 0.0009375 2.06196 2.50196e+21 1.66381e-05 0.000635848 -0.034977 -0.750796 
0.01575 0.0009375 1.98854 2.52007e+21 1.67585e-05 5.39023 5.96422 1.29222 
0.01725 0.0009375 2.06666 2.46876e+21 1.64173e-05 -1.70112 -1.75733 0.666353 
0.024375 0.00384375 2.05848 2.60288e+21 1.73092e-05 3.94825 2.92919 -3.76369 
0.024375 0.00403125 2.02897 2.40882e+21 1.60187e-05 2.35109 -0.180435 -1.86659 
0.025125 0.00403125 2.06831 2.56043e+21 1.70269e-05 0.045376 -1.99421 -0.579116 
0.025875 0.00384375 1.94217 2.44094e+21 1.62322e-05 3.71271 -2.26293 -3.39933 
0.026625 0.00403125 1.90818 2.54639e+21 1.69335e-05 0.982321 0.14634 -0.419102 
0.024375 0.00421875 1.90076 2.46809e+21 1.64128e-05 3.42192 2.38678 -0.864557 
0.025125 0.00421875 2.05421 2.62906e+21 1.74832e-05 1.62712 2.96649 -0.147697 
0.024375 0.00440625 1.97249 2.36821e+21 1.57486e-05 0.735415 0.0511935 -0.159001 
0.028875 0.00421875 1.9225 2.34201e+21 1.55743e-05 1.22337 0.921289 6.57539 
0.029625 0.00421875 2.0234 2.53784e+21 1.68767e-05 2.62027 2.02847 0.272012 
0.028875 0.00440625 2.0164 2.41958e+21 1.60902e-05 -0.328247 1.15675 -3.31796 
0.029625 0.00440625 2.05577 2.48122e+21 1.65001e-05 1.99331 -0.782459 1.71091 
0.027375 0.00459375 1.91633 2.4514e+21 1.63018e-05 0.0220332 3.5376 -0.209082 
0.028125 0.00459375 1.87219 2.64849e+21 1.76125e-05 0.687705 -1.11781 -0.713554 
0.028125 0.00515625 1.94239 2.59223e+21 1.72383e-05 3.63537 -1.51436 -0.211603 
0.006375 0.00084375 1.76464 7.13601e+21 4.74545e-05 54.2279 5.3807 1.47947 
0.007125 0.00084375 1.71181 5.27153e+21 3.50556e-05 57.7872 12.4428 -3.46285 
0.006375 0.00103125 1.73257 6.73848e+21 4.48109e-05 50.1352 8.32817 -1.81022 
0.007125 0.00103125 1.76209 5.30079e+21 3.52503e-05 48.97 14.6835 4.42454 
0.006375 0.00271875 1.84686 3.30164e+21 2.19559e-05 4.21539 4.21481 2.25317 
0.007125 0.00271875 1.9866 3.40519e+21 2.26445e-05 1.22819 7.58901 -0.204678 
0.006375 0.00290625 1.92097 3.19816e+21 2.12678e-05 -2.68363 2.1492 4.95342 
0.007125 0.00290625 1.92891 3.45421e+21 2.29705e-05 -0.176228 7.05674 1.44258 
0.006375 0.00384375 1.98214 3.17447e+21 2.11102e-05 -3.10046 6.36558 -3.01593 
0.006375 0.00403125 1.93804 3.19001e+21 2.12136e-05 -1.98578 2.06539 1.01223 
0.010125 0.00571875 0 0 0 0 0 0 
0.009375 0.00590625 1.94203 3.30277e+21 2.19634e-05 -2.57208 5.81202 0.548387 
0.010125 0.00590625 0 0 0 0 0 0 
0.010125 0.00609375 0 0 0 0 0 0 
0.010125 0.00628125 0 0 0 0 0 0 
0.010125 0.00721875 0 0 0 0 0 0 
0.010125 0.00740625 0 0 0 0 0 0 
0.010125 0.00796875 0 0 0 0 0 0 
0.010125 0.00815625 0 0 0 0 0 0 
0.010125 0.00834375 0 0 0 0 0 0 
0.010125 0.00853125 0 0 0 0 0 0 
0.010125 0.00909375 0 0 0 0 0 0 
0.010125 0.00928125 0 0 0 0 0 0 
0.013875 0.00421875 2.04035 2.70685e+21 1.80006e-05 3.51509 0.670241 1.92705 
0.014625 0.00421875 2.0738 2.56467e+21 1.70551e-05 -0.678172 -1.60276 -2.56263 
0.014625 0.00440625 2.02256 2.59424e+21 1.72517e-05 -1.22807 -2.20816 -1.74171 
0.015375 0.00384375 1.92601 2.53811e+21 1.68784e-05 -2.00797 -0.0844348 1.14193 
0.016125 0.00384375 1.93706 2.50572e+21 1.6663e-05 -1.16376 -2.60267 4.83434 
0.015375 0.00403125 1.98281 2.58289e+21 1.71762e-05 -4.55386 2.56573 1.56565 
0.016125 0.00403125 2.11258 2.50147e+21 1.66348e-05 0.191542 6.21549 2.56345 
0.016875 0.00384375 2.03343 2.44094e+21 1.62322e-05 3.93017 -0.741936 1.13601 
0.016875 0.00403125 2.053 2.3611e+21 1.57013e-05 -1.28618 -2.59311 -1.61122 
0.017625 0.00403125 1.96233 2.48463e+21 1.65228e-05 -2.2828 -0.314876 -1.96631 
0.013875 0.00459375 1.98369 2.43908e+21 1.62199e-05 -2.18161 0.778292 0.226518 
0.012375 0.00759375 1.71908 2.4368e+21 1.62047e-05 4.8985 -0.813492 2.30942 
0.012375 0.00778125 1.91564 2.44353e+21 1.62495e-05 5.6075 -11.9465 1.32749 
0.012375 0.00834375 1.89926 2.68572e+21 1.78601e-05 -1.98505 -1.52187 -6.87042 
0.012375 0.00853125 2.1087 2.5471e+21 1.69382e-05 3.6002 7.23678 3.47909 
0.012375 0.00909375 1.95646 2.50156e+21 1.66354e-05 -3.79052 4.88785 -2.03399 
0.012375 0.00928125 1.73307 2.54248e+21 1.69075e-05 5.01626 -5.01201 -4.94204 
0.022875 0.00309375 1.92048 2.3742e+21 1.57884e-05 1.12965 1.82777 2.26066 
0.023625 0.00309375 1.99655 2.44736e+21 1.6275e-05 -1.05909 1.49283 -1.40219 
0.022875 0.00328125 1.97541 2.49032e+21 1.65606e-05 6.01324 -4.8227 -0.366785 
0.023625 0.00328125 2.09156 2.47997e+21 1.64918e-05 0.407801 -1.42138 3.75339 
0.022875 0.00346875 1.93727 2.40465e+21 1.59909e-05 0.993285 0.346336 -0.263808 
0.023625 0.00346875 2.12391 2.44707e+21 1.6273e-05 2.10696 0.764038 -0.887644 
0.022875 0.00365625 2.02377 2.56302e+21 1.70441e-05 2.94723 -0.997694 1.69221 
0.023625 0.00365625 2.09419 2.55373e+21 1.69823e-05 3.66375 0.618482 0.0343542 
0.018375 0.00384375 2.00264 2.66472e+21 1.77204e-05 6.15834 -0.507908 -2.71017 
0.018375 0.00421875 2.06182 2.50029e+21 1.66269e-05 -0.99089 -0.490328 -2.9837 
0.019125 0.00421875 1.94859 2.4198e+21 1.60917e-05 -0.524036 -3.10537 2.17324 
0.018375 0.00440625 2.05932 2.46067e+21 1.63635e-05 2.35757 2.92527 -1.00566 
0.022125 0.00384375 2.01859 2.52927e+21 1.68197e-05 2.72349 -3.36162 2.56315 
0.021375 0.00403125 2.05809 2.39479e+21 1.59253e-05 1.96284 1.25557 -0.889012 
0.022125 0.00403125 1.99924 2.34144e+21 1.55706e-05 1.52114 0.0543429 3.18686 
0.022875 0.00421875 1.9863 2.46005e+21 1.63593e-05 2.26707 2.7649 -5.7055 
0.022875 0.00440625 1.99547 2.56598e+21 1.70638e-05 2.39297 4.31971 -2.27986 
0.018375 0.00515625 2.03254 2.50443e+21 1.66545e-05 2.58129 0.942802 -0.252851 
0.021375 0.00459375 2.06937 2.42676e+21 1.61379e-05 4.28347 -3.28482 -1.75778 
0.022125 0.00459375 2.0713 2.50313e+21 1.66458e-05 0.842455 -2.35068 -0.296747 
0.021375 0.00478125 1.99116 2.52333e+21 1.67801e-05 1.91432 -0.434292 -1.92032 
0.022125 0.00478125 1.99602 2.62038e+21 1.74255e-05 0.191651 -1.90536 1.28837 
0.019875 0.00571875 1.97867 2.55693e+21 1.70036e-05 1.90304 -2.20107 -0.543415 
0.018375 0.0128438 0 0 0 0 0 0 
0.018375 0.0130313 0 0 0 0 0 0 
0.018375 0.0135938 0 0 0 0 0 0 
0.018375 0.0137813 0 0 0 0 0 0 
0.018375 0.0139688 0 0 0 0 0 0 
0.018375 0.0141563 0 0 0 0 0 0 
0.018375 0.0143437 0 0 0 0 0 0 
0.018375 0.0145312 0 0 0 0 0 0 
0.018375 0.0150937 0 0 0 0 0 0 
0.018375 0.0152812 0 0 0 0 0 0 
0.018375 0.0162188 0 0 0 0 0 0 
0.018375 0.0164062 0 0 0 0 0 0 
0.018375 0.0165937 0 0 0 0 0 0 
0.018375 0.0167812 0 0 0 0 0 0 
0.018375 0.0180937 0 0 0 0 0 0 
0.018375 0.0182812 0 0 0 0 0 0 
0.018375 0.0188437 0 0 0 0 0 0 
0.018375 0.0190312 0 0 0 0 0 0 
0.018375 0.0207187 0 0 0 0 0 0 
0.018375 0.0209062 0 0 0 0 0 0 
0.0294375 0.0109219 2.06212 2.49527e+21 1.65935e-05 2.52482 1.37827 -0.637501 
0.0298125 0.0109219 1.92656 2.31703e+21 1.54083e-05 -3.80213 0.991582 2.12415 
0.0294375 0.0110156 2.02223 2.52746e+21 1.68076e-05 0.631577 -3.45812 0.838975 
0.0298125 0.0110156 2.03534 2.51513e+21 1.67256e-05 0.428397 3.50194 3.14596 
0.0279375 0.0112969 1.99288 2.37637e+21 1.58029e-05 8.08392 2.83663 1.24271 
0.0283125 0.0112969 2.01657 2.4485e+21 1.62825e-05 -5.75696 2.13816 -3.755 
0.0279375 0.0113906 1.92139 2.48797e+21 1.6545e-05 1.35266 0.0908215 0.0186344 
0.0283125 0.0113906 2.15261 2.45617e+21 1.63335e-05 -2.50077 6.28635 3.33528 
0.0294375 0.0116719 1.90768 2.61419e+21 1.73844e-05 -1.45558 0.569369 -2.92348 
0.0298125 0.0116719 1.79981 2.37759e+21 1.5811e-05 -2.15049 1.50848 0.618761 
0.0294375 0.0117656 1.93724 2.43945e+21 1.62223e-05 0.816153 1.85641 -1.43638 
0.0298125 0.0117656 2.0539 2.42406e+21 1.612e-05 0.601304 -0.667932 -0.135392 
0.0256875 0.0120469 1.95258 2.50275e+21 1.66433e-05 -1.32376 -1.65627 -0.109335 
0.0260625 0.0120469 2.00139 2.43887e+21 1.62185e-05 0.00472572 -0.340869 -4.15877 
0.0256875 0.0121406 2.03803 2.5058e+21 1.66635e-05 0.983748 -3.10513 0.884839 
0.0260625 0.0121406 2.12154 2.5319e+21 1.68371e-05 1.0811 -1.90623 -0.316114 
0.0286875 0.0120469 1.93092 2.5253e+21 1.67932e-05 6.07981 -3.63879 0.859419 
0.0290625 0.0120469 2.03953 2.46893e+21 1.64184e-05 6.45605 -1.26663 -1.64047 
0.0286875 0.0121406 2.01508 2.34546e+21 1.55973e-05 1.88841 2.3158 -3.16715 
0.0290625 0.0121406 1.93355 2.72207e+21 1.81018e-05 2.06989 4.12968 -1.31587 
0.0294375 0.0122344 1.90477 2.61611e+21 1.73971e-05 1.83263 -0.854175 -2.4091 
0.0298125 0.0122344 2.05085 2.494e+21 1.65851e-05 1.8307 -3.44611 -3.41045 
0.0294375 0.0123281 2.15829 2.21798e+21 1.47496e-05 -0.681327 2.52211 0.545878 
0.0298125 0.0123281 1.89766 2.3869e+21 1.58729e-05 -3.43903 -0.176424 -0.194229 
0.0241875 0.0127969 1.93851 2.50111e+21 1.66324e-05 1.14585 -0.104339 -0.0960147 
0.0245625 0.0127969 2.03202 2.68153e+21 1.78322e-05 2.73737 1.25025 2.27147 
0.0241875 0.0128906 1.99485 2.5356e+21 1.68617e-05 -0.468785 1.47579 0.65621 
0.0245625 0.0128906 1.94794 2.44429e+21 1.62545e-05 -0.186504 2.10136 0.771068 
0.0249375 0.0127969 2.07157 2.44451e+21 1.6256e-05 0.880959 2.58916 2.92055 
0.0253125 0.0127969 2.02958 2.45158e+21 1.6303e-05 -1.03573 2.22433 2.08486 
0.0249375 0.0128906 1.9512 2.43024e+21 1.61611e-05 2.33493 -5.46648 -2.01161 
0.0253125 0.0128906 1.96092 2.61989e+21 1.74222e-05 -5.5669 -0.713756 -4.9746 
0.0249375 0.0129844 1.95879 2.40224e+21 1.59749e-05 -4.54484 0.986526 -1.27829 
0.0253125 0.0129844 1.78228 2.44756e+21 1.62763e-05 0.187267 1.09813 -5.43378 
0.0249375 0.0130781 2.02924 2.41963e+21 1.60906e-05 4.93119 -4.17313 -0.190331 
0.0253125 0.0130781 1.99415 2.51309e+21 1.67121e-05 -0.283792 1.86334 5.48383 
0.0249375 0.0131719 1.9606 2.40585e+21 1.59989e-05 7.15231 -0.87451 -6.66461 
0.0253125 0.0131719 1.94662 2.39897e+21 1.59532e-05 1.15935 1.39045 -0.623387 
0.0249375 0.0132656 2.13714 2.45368e+21 1.6317e-05 4.96201 -3.534 1.05451 
0.0253125 0.0132656 1.96152 2.53559e+21 1.68617e-05 -1.55808 0.70114 -2.64338 
0.0241875 0.0133594 2.17764 2.50085e+21 1.66307e-05 5.64347 3.56023 -0.242963 
0.0245625 0.0133594 1.92138 2.33819e+21 1.5549e-05 -1.09974 -4.27999 3.41042 
0.0241875 0.0134531 1.99091 2.58101e+21 1.71637e-05 -1.02494 -1.35163 -1.17909 
0.0245625 0.0134531 1.93491 2.5238e+21 1.67833e-05 -0.600779 2.37564 -0.671862 
0.0286875 0.0127969 1.95637 2.48696e+21 1.65383e-05 -2.46474 2.35969 -3.43926 
0.0290625 0.0127969 2.0302 2.58955e+21 1.72205e-05 -1.16735 1.76711 -1.14805 
0.0286875 0.0128906 1.93386 2.24411e+21 1.49233e-05 8.72047 -1.41558 -4.03327 
0.0290625 0.0128906 2.02992 2.46536e+21 1.63947e-05 1.66386 -1.28099 0.555783 
0.0294375 0.0129844 1.98456 2.44059e+21 1.62299e-05 -0.590462 0.943675 0.856957 
0.0298125 0.0129844 2.00378 2.40921e+21 1.60212e-05 -1.62005 3.78557 0.49617 
0.0294375 0.0130781 1.82114 2.39194e+21 1.59064e-05 3.21308 -1.67598 1.58807 
0.0298125 0.0130781 2.00735 2.35732e+21 1.56762e-05 0.871625 -0.934759 -1.39751 
0.0283125 0.0133594 1.96114 2.64656e+21 1.75997e-05 0.79674 0.712956 -4.26121 
0.0279375 0.0134531 2.06787 2.43295e+21 1.61791e-05 0.425962 4.43391 0.159431 
0.0283125 0.0134531 1.93177 2.51707e+21 1.67385e-05 -1.08218 -1.33554 1.81076 
0.0286875 0.0131719 1.88947 2.43334e+21 1.61817e-05 4.42123 -1.69613 0.0908189 
0.0290625 0.0131719 2.02606 2.41959e+21 1.60903e-05 -3.34433 -0.60597 -1.0755 
0.0286875 0.0132656 2.0755 2.54924e+21 1.69524e-05 5.20652 -0.648503 -0.838655 
0.0290625 0.0132656 1.9221 2.40591e+21 1.59993e-05 2.23098 0.460466 1.14193 
0.0286875 0.0133594 1.98365 2.41275e+21 1.60448e-05 -1.18068 0.564301 2.66135 
0.0290625 0.0133594 2.00117 2.41613e+21 1.60673e-05 -2.09781 1.48045 -1.71648 
0.0286875 0.0134531 2.11653 2.48342e+21 1.65148e-05 2.67143 -2.96988 -0.192161 
0.0290625 0.0134531 2.04255 2.51034e+21 1.66938e-05 -0.0906838 1.71589 -0.165599 
0.0256875 0.0135469 1.95233 2.52305e+21 1.67783e-05 0.601779 0.539467 2.15125 
0.0260625 0.0135469 1.98196 2.17884e+21 1.44893e-05 -1.99492 1.8598 3.0074 
0.0260625 0.0136406 2.03266 2.49575e+21 1.65967e-05 -2.30862 -0.793394 3.38078 
0.0256875 0.0137344 1.91529 2.32709e+21 1.54752e-05 1.05137 1.91115 3.06864 
0.0260625 0.0137344 1.96671 2.47542e+21 1.64615e-05 -0.781005 -2.31579 -1.46943 
0.0256875 0.0138281 1.9971 2.53721e+21 1.68724e-05 2.98203 1.03098 -1.81572 
0.0260625 0.0138281 1.96334 2.43245e+21 1.61758e-05 2.19179 2.14434 0.322542 
0.0249375 0.0139219 1.95474 2.63719e+21 1.75373e-05 1.03671 0.784563 -0.689604 
0.0253125 0.0139219 2.06059 2.39981e+21 1.59587e-05 0.319309 -1.41086 0.118158 
0.0249375 0.0140156 1.91088 2.49034e+21 1.65608e-05 -0.245738 -1.53996 -0.606485 
0.0253125 0.0140156 2.00673 2.41928e+21 1.60882e-05 0.642835 1.65647 -2.28234 
0.0241875 0.0141094 2.00426 2.5861e+21 1.71975e-05 -1.77818 -1.12527 -0.440217 
0.0245625 0.0141094 1.96228 2.59572e+21 1.72616e-05 -0.742095 0.958293 6.37082 
0.0241875 0.0142031 2.04904 2.46066e+21 1.63634e-05 0.186032 -2.84422 -2.30955 
0.0245625 0.0142031 2.04637 2.4989e+21 1.66177e-05 2.50927 -0.292189 -1.20824 
0.0256875 0.0141094 1.93341 2.47059e+21 1.64294e-05 3.83959 -0.671135 0.550021 
0.0256875 0.0142031 2.01945 2.62321e+21 1.74444e-05 2.83326 0.617542 -3.06033 
0.0260625 0.0142031 1.91577 2.53078e+21 1.68297e-05 -1.61639 4.53238 -3.263 
0.0286875 0.0135469 2.08796 2.51636e+21 1.67338e-05 1.26329 1.26165 -3.96684 
0.0290625 0.0135469 2.01346 2.56983e+21 1.70894e-05 -2.65145 0.931932 0.492331 
0.0286875 0.0136406 1.91034 2.46256e+21 1.6376e-05 -2.68762 -0.0216188 1.32847 
0.0290625 0.0136406 2.07801 2.4161e+21 1.60671e-05 2.24291 -4.28633 0.209342 
0.0286875 0.0137344 1.9755 2.38313e+21 1.58478e-05 4.0761 1.02743 0.451861 
0.0290625 0.0137344 1.98371 2.47212e+21 1.64396e-05 0.439646 3.56117 5.02201 
0.0286875 0.0138281 1.99263 2.58959e+21 1.72208e-05 3.87274 2.14506 1.79062 
0.0290625 0.0138281 2.08111 2.50774e+21 1.66765e-05 1.75948 1.99138 3.3647 
0.0294375 0.0137344 1.83529 2.4886e+21 1.65492e-05 4.56264 3.80378 -1.03783 
0.0298125 0.0137344 1.968 2.35346e+21 1.56505e-05 2.18826 -1.36946 -4.89831 
0.0294375 0.0138281 2.01823 2.42262e+21 1.61104e-05 2.11382 -0.500773 -2.41013 
0.0298125 0.0138281 1.9632 2.52411e+21 1.67853e-05 6.10956 -3.77538 3.3326 
0.0256875 0.0142969 1.93172 2.39069e+21 1.58981e-05 2.45127 -2.24421 -0.286862 
0.0260625 0.0142969 1.9897 2.44769e+21 1.62771e-05 0.0589385 0.183697 3.47172 
0.0256875 0.0143906 2.00137 2.29332e+21 1.52506e-05 3.03386 3.16797 0.849928 
0.0260625 0.0143906 2.00741 2.55443e+21 1.6987e-05 5.13987 -1.99537 -0.178904 
0.0268125 0.0142969 2.01573 2.48569e+21 1.65298e-05 -2.80554 -3.65315 -0.157854 
0.0264375 0.0143906 1.89134 2.45691e+21 1.63384e-05 2.81206 -1.27649 -0.79534 
0.0268125 0.0143906 1.97147 2.44433e+21 1.62548e-05 3.97444 1.39358 -3.86286 
0.0256875 0.0144844 2.03452 2.46914e+21 1.64198e-05 -1.36115 -5.91117 3.63455 
0.0260625 0.0144844 2.09297 2.31599e+21 1.54013e-05 -1.06867 2.43892 1.81216 
0.0256875 0.0145781 1.97044 2.31351e+21 1.53849e-05 1.1031 -1.10914 4.32716 
0.0260625 0.0145781 2.03161 2.38183e+21 1.58392e-05 -1.30151 2.32616 -0.0704317 
0.0249375 0.0146719 1.96635 2.53632e+21 1.68665e-05 2.83403 2.20327 2.3212 
0.0253125 0.0146719 2.00446 2.45918e+21 1.63535e-05 3.23065 2.76114 1.99143 
0.0249375 0.0147656 2.04545 2.48036e+21 1.64944e-05 0.105961 -1.59833 -0.0140075 
0.0253125 0.0147656 1.98912 2.50795e+21 1.66779e-05 1.47763 -1.94094 -5.98984 