ITEM: TIMESTEP
500000
ITEM: NUMBER OF CELLS
7120
ITEM: BOX BOUNDS oo ao pp
0 0.12
0 0.03
-0.1 0.1
ITEM: CELLS xc yc f_out[1] f_out[2] f_out[3] f_out[4] f_out[5] f_out[6] 
0.003 0.00675 0 0 0 0 0 0 
0.003 0.01275 0 0 0 0 0 0 
0.009 0.00675 0 0 0 0 0 0 
0.009 0.01275 0 0 0 0 0 0 
0.003 0.00825 0 0 0 0 0 0 
0.003 0.01425 0 0 0 0 0 0 
0.009 0.00825 0 0 0 0 0 0 
0.009 0.01425 0 0 0 0 0 0 
0.015 0.00825 0 0 0 0 0 0 
0.015 0.01425 0 0 0 0 0 0 
0.003 0.00375 0 0 0 0 0 0 
0.003 0.00975 0 0 0 0 0 0 
0.009 0.00375 0 0 0 0 0 0 
0.009 0.00975 0 0 0 0 0 0 
0.003 0.00525 0 0 0 0 0 0 
0.003 0.01125 0 0 0 0 0 0 
0.009 0.00525 0 0 0 0 0 0 
0.009 0.01125 0 0 0 0 0 0 
0.015 0.00525 0 0 0 0 0 0 
0.015 0.01125 0 0 0 0 0 0 
0.0015 0.000375 0 0 0 0 0 0 
0.0015 0.001125 0 0 0 0 0 0 
0.0015 0.001875 0 0 0 0 0 0 
0.0015 0.002625 0 0 0 0 0 0 
0.0045 0.002625 0 0 0 0 0 0 
0.0075 0.002625 0 0 0 0 0 0 
0.0105 0.002625 0 0 0 0 0 0 
0.0135 0.002625 0 0 0 0 0 0 
0.0165 0.002625 0 0 0 0 0 0 
0.00375 0.0001875 0 0 0 0 0 0 
0.00525 0.0001875 4.0047 1.11004e+23 0.000738176 14.7126 -2.79397 0.913004 
0.00375 0.0005625 0 0 0 0 0 0 
0.00375 0.0009375 0 0 0 0 0 0 
0.00375 0.0013125 0 0 0 0 0 0 
0.00675 0.0001875 3.95935 1.10098e+23 0.000732155 24.8807 -1.11696 -3.59646 
0.00825 0.0001875 3.95068 1.03942e+23 0.000691212 30.206 1.62917 -0.804468 
0.00975 0.0001875 3.77278 1.03821e+23 0.000690409 25.2395 4.10112 0.468592 
0.01125 0.0001875 3.88741 9.10244e+22 0.000605312 26.113 -7.68543 -2.38062 
0.00375 0.0016875 0 0 0 0 0 0 
0.00375 0.0020625 0 0 0 0 0 0 
0.004875 0.00046875 4.15556 1.14155e+23 0.000759129 11.654 0.530564 -4.4973 
0.005625 0.00046875 4.02359 1.02759e+23 0.000683344 17.9175 -8.92492 0.53634 
0.004875 0.00065625 4.24639 1.10926e+23 0.00073766 5.9847 6.30561 1.33763 
0.004875 0.00084375 3.89262 1.09777e+23 0.000730014 15.6866 1.35655 -5.56055 
0.005625 0.00084375 3.84779 1.12352e+23 0.00074714 22.9064 4.12562 -0.531768 
0.004875 0.00103125 3.91525 1.01143e+23 0.000672601 8.95963 -4.39504 1.14739 
0.004875 0.00121875 3.78262 1.23916e+23 0.000824044 16.5906 3.09871 7.2009 
0.004875 0.00140625 3.74333 1.12223e+23 0.000746284 12.502 -3.80984 1.09951 
0.006375 0.00046875 4.10981 1.00827e+23 0.000670499 22.4921 3.71289 4.14089 
0.007125 0.00046875 4.11106 9.75434e+22 0.000648663 26.9861 5.64155 4.69848 
0.006375 0.00065625 3.91318 1.02096e+23 0.00067894 23.3458 3.16889 2.67413 
0.007125 0.00065625 3.99338 9.82332e+22 0.000653251 19.5754 -4.51258 -3.48734 
0.007875 0.00046875 4.01874 1.05656e+23 0.000702612 28.4933 -3.65451 -5.87317 
0.008625 0.00046875 4.03774 1.01406e+23 0.000674353 29.2143 -5.73278 -3.00891 
0.007875 0.00065625 3.87543 1.03062e+23 0.000685363 22.374 -2.30355 1.06652 
0.008625 0.00065625 4.18469 9.61637e+22 0.000639488 22.4377 0.664847 -4.41256 
0.009375 0.00046875 4.13313 9.75434e+22 0.000648663 21.8395 -4.25532 1.33112 
0.010125 0.00046875 3.9993 9.69639e+22 0.00064481 24.6807 3.13399 -1.32369 
0.009375 0.00065625 3.8942 1.01544e+23 0.00067527 28.86 1.37219 1.43478 
0.010125 0.00065625 4.05832 9.29904e+22 0.000618386 25.4478 -3.20332 -3.40917 
0.010875 0.00046875 4.19258 9.56118e+22 0.000635818 33.978 1.40139 1.44986 
0.011625 0.00046875 4.09425 9.02035e+22 0.000599853 30.2963 -0.622122 3.55878 
0.010875 0.00065625 4.00002 9.64396e+22 0.000641323 30.265 -1.38653 0.507993 
0.011625 0.00065625 3.61964 9.28524e+22 0.000617469 31.2359 -5.49777 -1.9027 
0.006375 0.00084375 3.91364 1.03875e+23 0.000690766 21.7882 -1.25306 -0.417728 
0.007875 0.00084375 4.05211 1.04626e+23 0.000695761 24.2853 -6.7266 -0.846945 
0.008625 0.00084375 3.97686 9.86164e+22 0.000655799 26.639 0.278756 -2.26359 
0.009375 0.00084375 3.87441 9.75434e+22 0.000648663 26.3853 3.79673 0.708132 
0.010125 0.00084375 3.87233 9.6363e+22 0.000640814 27.5457 5.36137 3.24672 
0.010875 0.00084375 4.15561 9.50753e+22 0.00063225 28.8017 -1.04205 -0.631632 
0.011625 0.00084375 3.82953 9.1856e+22 0.000610842 22.8888 -4.37069 0.147096 
0.010875 0.00103125 3.88369 9.09585e+22 0.000604874 27.862 2.5832 5.68427 
0.004875 0.00159375 3.92589 1.19643e+23 0.000795623 12.5161 -3.32431 -0.106996 
0.004875 0.00178125 3.93882 1.16961e+23 0.000777788 14.7754 -4.16091 3.38058 
0.004875 0.00196875 4.06926 1.19865e+23 0.000797104 7.27038 0.792719 1.77305 
0.004875 0.00215625 0 0 0 0 0 0 
0.005625 0.00215625 0 0 0 0 0 0 
0.006375 0.00215625 0 0 0 0 0 0 
0.007125 0.00215625 0 0 0 0 0 0 
0.007875 0.00215625 0 0 0 0 0 0 
0.008625 0.00215625 0 0 0 0 0 0 
0.009375 0.00215625 0 0 0 0 0 0 
0.010125 0.00215625 0 0 0 0 0 0 
0.010875 0.00215625 0 0 0 0 0 0 
0.011625 0.00215625 0 0 0 0 0 0 
0.012375 0.00215625 0 0 0 0 0 0 
0.013125 0.00215625 0 0 0 0 0 0 
0.013875 0.00215625 0 0 0 0 0 0 
0.014625 0.00215625 0 0 0 0 0 0 
0.016125 0.00196875 3.90101 8.06111e+22 0.000536064 6.78075 0.750596 -0.0966647 
0.015375 0.00215625 0 0 0 0 0 0 
0.016125 0.00215625 0 0 0 0 0 0 
0.016875 0.00215625 0 0 0 0 0 0 
0.017625 0.00215625 0 0 0 0 0 0 
0.0054375 0.000984375 3.93959 1.04488e+23 0.000694843 17.3515 -4.8879 -7.68058 
0.0058125 0.000984375 3.8486 1.0228e+23 0.000680164 21.0653 4.57682 0.916563 
0.0054375 0.00107813 4.06189 1.20596e+23 0.000801963 20.8494 -5.40101 6.03715 
0.0058125 0.00107813 3.79448 1.09511e+23 0.000728245 14.1538 -4.38455 6.01585 
0.0054375 0.00117188 4.09163 1.08785e+23 0.00072342 15.2377 -1.83129 10.5148 
0.0058125 0.00117188 3.98769 1.10021e+23 0.000731641 21.3176 2.08896 -0.194279 
0.0054375 0.00126563 3.88647 1.1389e+23 0.000757369 15.7362 -7.62141 -3.09093 
0.0058125 0.00126563 4.02968 1.04447e+23 0.000694572 13.7262 -4.50858 3.60597 
0.0054375 0.00135937 3.97398 1.14827e+23 0.000763602 17.0278 -1.73104 0.12372 
0.0058125 0.00135937 4.24422 1.06036e+23 0.000705136 21.0163 1.54727 3.23332 
0.0054375 0.00145312 4.04586 1.01936e+23 0.000677875 13.8676 0.550736 1.1085 
0.0058125 0.00145312 3.71552 1.09662e+23 0.000729254 27.5298 -7.56072 -6.89983 
0.0084375 0.000984375 3.97738 1.15157e+23 0.000765796 33.265 -10.9255 -0.999652 
0.0088125 0.000984375 3.84967 9.8969e+22 0.000658144 20.8869 1.00119 -6.28678 
0.0084375 0.00107813 3.72722 9.0363e+22 0.000600914 27.5791 -12.8589 -3.04841 
0.0088125 0.00107813 3.90953 9.40582e+22 0.000625487 18.1138 5.07829 5.66792 
0.0061875 0.00117188 4.14903 1.17747e+23 0.00078302 17.622 -6.55627 -3.41702 
0.0065625 0.00117188 3.9409 1.09403e+23 0.00072753 21.0301 -0.631253 3.29446 
0.0061875 0.00126563 3.72517 9.75791e+22 0.000648901 15.1122 -10.1455 -7.80597 
0.0065625 0.00126563 3.70326 1.00155e+23 0.000666028 17.8674 -1.88334 0.484004 
0.0061875 0.00135937 4.22896 1.06568e+23 0.00070868 8.58005 -4.39099 -0.964024 
0.0065625 0.00135937 4.10922 1.03371e+23 0.000687419 11.6798 -2.83862 4.98767 
0.0061875 0.00145312 3.85461 1.11158e+23 0.000739199 19.7235 -1.97363 8.97927 
0.0065625 0.00145312 3.85344 1.12653e+23 0.000749143 20.1388 3.04683 -7.63777 
0.0076875 0.00117188 4.0933 9.64231e+22 0.000641213 19.8318 -5.72314 1.83055 
0.0080625 0.00117188 4.19642 9.67321e+22 0.000643268 18.589 0.236444 -0.149129 
0.0076875 0.00126563 3.86703 9.98684e+22 0.000664125 22.5273 -1.6177 1.58848 
0.0080625 0.00126563 4.05551 9.98684e+22 0.000664125 18.8608 -2.34778 9.30575 
0.0084375 0.00135937 4.0827 9.99078e+22 0.000664387 18.3797 2.93475 6.9243 
0.0088125 0.00135937 3.92974 1.0497e+23 0.000698049 15.4606 5.75433 1.43762 
0.0084375 0.00145312 4.09321 9.6453e+22 0.000641412 11.7042 -2.43268 6.00165 
0.0088125 0.00145312 3.91509 9.59545e+22 0.000638097 9.12931 -2.13847 0.729706 
0.0099375 0.00135937 4.21531 1.04171e+23 0.000692734 24.2045 1.18593 4.94077 
0.0103125 0.00135937 4.03393 9.40466e+22 0.00062541 15.1369 -2.05037 -2.84557 
0.0099375 0.00145312 3.61872 1.03182e+23 0.000686162 18.0873 -3.86338 -1.76365 
0.0103125 0.00145312 3.91777 9.17175e+22 0.000609922 16.0277 -5.79906 -3.98576 
0.0106875 0.00117188 3.97895 9.54959e+22 0.000635048 22.7012 -3.51019 -11.6406 
0.0110625 0.00117188 4.2363 8.71516e+22 0.000579558 11.6775 -0.561684 1.0329 
0.0106875 0.00126563 4.00677 9.92961e+22 0.000660319 26.8652 8.54654 1.60113 
0.0110625 0.00126563 4.17671 1.00727e+23 0.000669833 26.9455 8.74566 2.46836 
0.0054375 0.00154688 4.15965 1.08401e+23 0.000720867 14.2038 -8.58005 3.25939 
0.0058125 0.00154688 3.78238 1.12849e+23 0.000750449 12.409 -0.273574 -7.2931 
0.0054375 0.00164063 3.9549 1.04414e+23 0.000694354 11.3763 -9.06583 -5.06022 
0.0058125 0.00164063 3.97017 1.04856e+23 0.00069729 24.7633 4.44305 0.232535 
0.0054375 0.00173438 3.88888 1.1109e+23 0.000738751 2.31164 2.82986 2.62741 
0.0058125 0.00173438 3.78902 1.13805e+23 0.000756803 6.10088 1.94606 0.858941 
0.0054375 0.00182813 3.72102 1.1312e+23 0.000752245 9.28494 -2.97025 -1.93246 
0.0058125 0.00182813 4.08444 1.04007e+23 0.000691644 3.17561 -2.20717 1.83786 
0.0069375 0.00154688 4.00829 1.00675e+23 0.000669487 9.97021 0.903846 -8.66727 
0.0073125 0.00154688 4.09006 1.00207e+23 0.000666374 12.8778 2.03849 0.349471 
0.0069375 0.00164063 4.16209 1.10816e+23 0.000736926 8.92477 7.2782 0.556178 
0.0073125 0.00164063 3.92988 9.75709e+22 0.000648847 11.4569 -1.72912 -1.19358 
0.0061875 0.00173438 3.96033 1.06496e+23 0.000708201 10.8694 -7.87219 1.89335 
0.0065625 0.00173438 3.93609 9.75173e+22 0.00064849 9.9573 1.34978 6.99901 
0.0061875 0.00182813 3.95753 1.06186e+23 0.000706136 8.91605 3.43819 5.13435 
0.0065625 0.00182813 3.91895 1.03412e+23 0.000687692 4.17363 -5.23131 7.44996 
0.0069375 0.00173438 4.08248 1.00858e+23 0.000670708 11.3484 2.51157 7.34312 
0.0073125 0.00173438 4.18395 9.8979e+22 0.00065821 10.3196 0.582965 -0.991911 
0.0069375 0.00182813 3.90959 1.07176e+23 0.000712723 -2.58993 -2.09738 -1.02646 
0.0073125 0.00182813 4.04264 1.10544e+23 0.000735119 6.25775 -3.15908 2.91491 
0.0084375 0.00154688 3.8064 1.05826e+23 0.00070374 16.5241 -0.0657488 5.0438 
0.0088125 0.00154688 3.84625 1.06996e+23 0.000711525 21.05 9.76858 -3.32804 
0.0084375 0.00164063 4.12155 1.04414e+23 0.000694354 6.59672 3.92674 1.92503 
0.0088125 0.00164063 3.79512 1.06842e+23 0.000710502 13.5609 -5.96244 1.28728 
0.0061875 0.00192187 4.05598 1.09298e+23 0.000726829 2.14956 -2.8496 -3.57747 
0.0065625 0.00192187 3.82007 1.0779e+23 0.000716803 8.14787 -6.39368 -3.64546 
0.0061875 0.00201563 4.26452 1.16623e+23 0.000775544 3.22587 -1.97057 9.47817 
0.0065625 0.00201563 3.60927 1.0184e+23 0.000677235 10.4635 -8.93874 3.98462 
0.0076875 0.00192187 3.83213 9.94985e+22 0.000661665 3.68046 -2.60999 0.464009 
0.0080625 0.00192187 4.0345 9.10185e+22 0.000605273 12.4118 2.87824 0.342756 
0.0076875 0.00201563 4.01998 9.08894e+22 0.000604414 -11.7337 -1.31784 -12.633 
0.0080625 0.00201563 4.20744 9.52696e+22 0.000633543 8.67634 3.62805 1.35707 
0.0084375 0.00192187 4.36413 1.01571e+23 0.000675449 9.42452 -5.33254 -4.76167 
0.0088125 0.00192187 4.2416 9.10185e+22 0.000605273 8.07492 2.19371 2.26152 
0.0084375 0.00201563 4.03148 9.3627e+22 0.00062262 -0.66711 -5.37354 3.31688 
0.0088125 0.00201563 3.9483 1.03482e+23 0.000688159 1.57697 6.73581 -3.37029 
0.0091875 0.00173438 4.07164 1.04826e+23 0.000697092 13.9124 -2.91555 3.92794 
0.0095625 0.00173438 4.10424 9.29233e+22 0.00061794 10.3415 -5.53267 1.45457 
0.0091875 0.00182813 4.03468 9.80634e+22 0.000652122 11.4234 2.18529 2.49015 
0.0095625 0.00182813 4.09858 9.60823e+22 0.000638947 2.37178 -0.0276889 5.7133 
0.0099375 0.00173438 3.87401 9.85613e+22 0.000655433 10.5598 -1.4068 6.13391 
0.0103125 0.00173438 3.92067 9.31321e+22 0.000619329 6.56075 1.82764 1.28488 
0.0099375 0.00182813 4.21817 9.96482e+22 0.000662661 13.1895 2.31846 -1.74237 
0.0103125 0.00182813 3.97519 9.44974e+22 0.000628408 6.04715 -4.09071 -5.61418 
0.0106875 0.00154688 4.24845 8.94367e+22 0.000594754 21.1671 1.49922 4.96403 
0.0110625 0.00154688 4.01953 9.13097e+22 0.00060721 15.9476 7.5662 -2.34591 
0.0106875 0.00164063 4.03225 8.71958e+22 0.000579852 9.46259 5.23303 5.39154 
0.0110625 0.00164063 4.03801 9.64672e+22 0.000641507 19.6543 -1.25505 -0.0116463 
0.0114375 0.00154688 3.97762 9.62264e+22 0.000639905 20.5244 -2.70083 9.59056 
0.0118125 0.00154688 4.16179 9.80994e+22 0.000652361 14.9342 -5.91749 1.49729 
0.0114375 0.00164063 3.96274 9.53635e+22 0.000634167 12.889 -2.39198 1.94751 
0.0118125 0.00164063 4.04566 9.60257e+22 0.000638571 12.1248 4.00535 3.77831 
0.0099375 0.00192187 3.86899 9.12069e+22 0.000606526 8.00084 -0.051968 -1.07342 
0.0103125 0.00192187 3.85686 9.61065e+22 0.000639108 0.727465 -1.82922 -3.57844 
0.0099375 0.00201563 4.09478 9.91023e+22 0.00065903 -0.180114 -4.03452 5.91605 
0.0103125 0.00201563 4.15131 9.14369e+22 0.000608055 1.50573 -3.86596 2.55974 
0.0121875 0.00154688 3.91143 8.96708e+22 0.000596311 27.9715 4.34332 6.42819 
0.0125625 0.00154688 4.27868 9.1778e+22 0.000610323 21.3651 -0.817525 5.07991 
0.0121875 0.00164063 4.18305 8.85202e+22 0.00058866 15.2097 8.07026 -4.33735 
0.0125625 0.00164063 3.79099 8.76373e+22 0.000582788 21.1765 3.74625 -1.11261 
0.0121875 0.00173438 4.13065 8.45706e+22 0.000562395 9.78033 -4.59975 4.99105 
0.0125625 0.00173438 3.76056 8.54059e+22 0.000567949 18.408 -5.32874 1.00159 
0.0121875 0.00182813 3.93224 9.76672e+22 0.000649487 3.75698 3.44695 5.02284 
0.0125625 0.00182813 4.19951 9.01391e+22 0.000599425 8.62251 0.791887 -1.19791 
0.0129375 0.00173438 4.2136 8.74941e+22 0.000581836 19.8348 -3.91509 -3.5988 
0.0133125 0.00173438 4.09717 8.74941e+22 0.000581836 14.1248 -1.94037 1.62245 
0.0129375 0.00182813 4.05138 9.11296e+22 0.000606012 7.61479 -1.07957 -3.74862 
0.0133125 0.00182813 4.05004 8.8158e+22 0.000586251 7.3736 -0.511164 -3.63888 
0.0136875 0.00173438 3.79035 9.22968e+22 0.000613774 15.3254 -3.80313 0.899583 
0.0140625 0.00173438 4.02412 8.66588e+22 0.000576281 9.37877 -0.740153 -1.10417 
0.0136875 0.00182813 3.85591 8.8158e+22 0.000586251 7.89215 -1.27596 1.54906 
0.0140625 0.00182813 3.94344 8.83561e+22 0.000587568 12.7861 -2.26806 -2.03015 
0.0151875 0.00173438 4.12106 7.70532e+22 0.000512404 3.59134 0.891408 -4.60097 
0.0155625 0.00173438 3.9326 8.1856e+22 0.000544343 11.8655 -8.40516 3.92262 
0.0151875 0.00182813 3.91077 8.30072e+22 0.000551998 10.0968 -0.676 -5.02477 
0.0155625 0.00182813 3.75601 7.9045e+22 0.000525649 9.85153 1.25466 1.55268 
0.0159375 0.00173438 4.13536 8.03943e+22 0.000534622 11.311 -7.25081 2.77819 
0.0163125 0.00173438 3.87447 7.20417e+22 0.000479077 10.8514 -0.687475 5.62513 
0.0159375 0.00182813 3.90975 8.22148e+22 0.000546728 5.51725 -2.10389 0.0758376 
0.0163125 0.00182813 4.00587 8.37996e+22 0.000557267 14.7641 -6.02477 2.36774 
0.0166875 0.00154688 3.97131 8.10081e+22 0.000538704 18.0664 1.20705 1.59546 
0.0170625 0.00154688 3.96753 7.3516e+22 0.000488882 14.6942 -0.0947314 -11.21 
0.0166875 0.00164063 4.35571 7.46131e+22 0.000496177 15.9464 -1.66674 2.51373 
0.0170625 0.00164063 3.96823 7.08603e+22 0.000471221 10.2022 4.22956 -2.67652 
0.0174375 0.00154688 4.10041 7.51549e+22 0.00049978 19.8802 2.6616 -4.78064 
0.0178125 0.00154688 4.05793 7.72621e+22 0.000513793 24.6065 6.87641 3.8345 
0.0174375 0.00164063 3.76007 7.81451e+22 0.000519665 9.68046 5.95773 4.76127 
0.0178125 0.00164063 3.98635 7.24056e+22 0.000481497 16.6059 -5.09188 3.0959 
0.0166875 0.00173438 4.26314 7.20417e+22 0.000479077 6.98138 0.654164 -6.79529 
0.0170625 0.00173438 3.94423 7.41298e+22 0.000492963 7.02416 -1.62148 7.07554 
0.0166875 0.00182813 3.64193 8.2611e+22 0.000549363 20.4285 1.49 -3.4584 
0.0170625 0.00182813 4.09103 7.36961e+22 0.000490079 7.61451 2.72992 3.12405 
0.0174375 0.00173438 4.03294 7.49651e+22 0.000498518 21.1167 1.60112 2.3504 
0.0178125 0.00173438 4.09909 7.58003e+22 0.000504072 19.1939 -2.61428 3.17277 
0.0174375 0.00182813 3.91285 7.36961e+22 0.000490079 4.07714 -2.97482 -5.34665 
0.0178125 0.00182813 3.97981 7.82526e+22 0.00052038 10.9003 4.94816 -0.903873 
0.0076875 0.00135937 3.87171 1.02306e+23 0.000680332 21.3211 -5.80361 -2.90978 
0.0080625 0.00135937 4.34313 9.53787e+22 0.000634268 18.0085 -0.479494 3.35157 
0.0076875 0.00145312 4.04016 1.01936e+23 0.000677875 12.9503 1.84042 10.4721 
0.0080625 0.00145312 4.05728 1.00939e+23 0.000671245 26.6149 10.7701 0.306052 
0.0076875 0.00154688 4.01073 1.10742e+23 0.000736436 9.36997 3.88859 -5.15124 
0.0080625 0.00154688 3.78745 1.00441e+23 0.000667931 11.959 2.90716 -10.4788 
0.0076875 0.00164063 3.88077 9.80124e+22 0.000651783 7.19454 0.533234 -7.93873 
0.0080625 0.00164063 3.99737 9.18315e+22 0.000610679 9.62654 -9.09505 2.97072 
0.0076875 0.00173438 3.83919 1.01276e+23 0.000673485 16.891 2.34194 -3.57941 
0.0080625 0.00173438 4.11374 1.03155e+23 0.000685983 10.2433 -2.30265 5.95369 
0.0076875 0.00182813 4.06 9.94501e+22 0.000661343 13.4574 0.79838 2.06597 
0.0080625 0.00182813 3.89525 9.07334e+22 0.000603377 0.173861 -7.61041 1.17334 
0.0084375 0.00173438 4.02236 9.04175e+22 0.000601276 10.8559 -3.35173 -2.78019 
0.0088125 0.00173438 3.86435 1.07123e+23 0.000712367 8.07956 -6.42212 -1.5989 
0.0084375 0.00182813 4.02203 1.0361e+23 0.000689009 17.4773 -1.35985 2.81088 
0.0088125 0.00182813 3.96955 9.9252e+22 0.000660026 11.148 -2.80241 -4.20685 
0.0099375 0.00154688 4.19264 9.95042e+22 0.000661703 16.8755 -6.12763 1.78026 
0.0103125 0.00154688 3.93201 1.00675e+23 0.000669487 17.0658 2.11034 -3.6357 
0.0099375 0.00164063 3.80355 1.00882e+23 0.000670866 16.3026 0.221009 3.41978 
0.0103125 0.00164063 3.94084 9.75709e+22 0.000648847 19.5392 -2.3103 4.1411 
0.0106875 0.00173438 3.86695 9.27145e+22 0.000616551 13.7993 -0.653491 -4.92555 
0.0110625 0.00173438 4.22026 9.25057e+22 0.000615163 1.78576 -6.85977 4.19649 
0.0106875 0.00182813 4.34196 8.41958e+22 0.000559902 8.90704 -0.470304 7.34116 
0.0110625 0.00182813 4.04156 9.31107e+22 0.000619186 9.83798 -6.30897 6.15965 
0.0114375 0.00173438 3.85091 8.9791e+22 0.00059711 12.5482 3.50265 -1.12451 
0.0118125 0.00173438 3.98893 9.10439e+22 0.000605442 10.2043 1.53953 7.42453 
0.0114375 0.00182813 4.19893 9.15258e+22 0.000608647 10.1751 1.92726 -8.70997 
0.0118125 0.00182813 3.83001 9.5488e+22 0.000634995 12.0949 1.21081 -0.435759 
0.0106875 0.00192187 3.56068 9.13954e+22 0.000607779 3.74872 4.00249 -5.32242 
0.0110625 0.00192187 3.97454 9.17723e+22 0.000610285 4.48593 -8.36576 -1.90946 
0.0106875 0.00201563 3.94743 9.69122e+22 0.000644466 -6.73416 6.14551 6.1788 
0.0110625 0.00201563 3.9696 9.63647e+22 0.000640825 13.5976 -0.533006 -7.24666 
0.0121875 0.00192187 4.0807 9.29029e+22 0.000617804 12.2441 0.124101 -3.24692 
0.0125625 0.00192187 3.83572 9.12069e+22 0.000606526 12.6138 6.15794 -0.891885 
0.0121875 0.00201563 4.15898 8.81518e+22 0.000586209 -7.22136 6.89548 -2.20627 
0.0125625 0.00201563 3.98959 8.43191e+22 0.000560722 -6.31506 4.58679 7.77274 
0.0136875 0.00192187 3.92176 8.17847e+22 0.000543868 3.55237 6.21376 1.394 
0.0140625 0.00192187 3.996 8.49883e+22 0.000565172 9.33115 1.18885 5.43721 
0.0136875 0.00201563 3.90744 7.99389e+22 0.000531593 -5.18841 -4.61676 1.8217 
0.0140625 0.00201563 4.51676 9.03419e+22 0.000600773 19.576 -0.826899 2.56187 
0.0159375 0.00154688 3.76139 8.40518e+22 0.000558944 16.2352 4.05267 -1.26117 
0.0163125 0.00154688 4.17899 7.96033e+22 0.000529362 12.4041 2.07298 7.06907 
0.0159375 0.00164063 4.17501 7.88073e+22 0.000524069 10.6285 -3.35803 -5.34132 
0.0163125 0.00164063 3.6523 6.51209e+22 0.000433054 21.8668 -1.23561 0.556603 
0.0069375 0.00135937 3.75808 1.04703e+23 0.000696278 16.5177 -4.69677 1.31176 
0.0073125 0.00135937 4.11548 1.07368e+23 0.000713995 25.5908 -4.25786 -0.0733164 
0.0069375 0.00145312 3.8324 9.86961e+22 0.000656329 15.4127 12.9903 -11.4692 
0.0073125 0.00145312 3.81288 1.05675e+23 0.000702736 24.9898 0.0269959 -1.4164 
0.0054375 0.00192187 3.85274 1.1137e+23 0.000740613 8.82375 -0.375227 1.73464 
0.0058125 0.00192187 3.82412 1.06471e+23 0.000708031 9.71339 -6.20976 -2.05148 
0.0054375 0.00201563 3.70566 1.11148e+23 0.000739133 4.2215 -3.95137 4.96789 
0.0058125 0.00201563 4.05347 8.70567e+22 0.000578927 0.833171 2.20209 4.12244 
0.0061875 0.00154688 3.99527 1.0325e+23 0.000686614 21.014 2.95826 -4.03976 
0.0065625 0.00154688 3.98401 1.03953e+23 0.000691285 11.0299 -7.99264 0.0914808 
0.0061875 0.00164063 3.78655 1.04635e+23 0.000695822 13.9046 -0.189621 -0.642511 
0.0065625 0.00164063 3.77579 1.03752e+23 0.00068995 5.64556 -0.0689419 2.11489 
0.0136875 0.00154688 4.26371 8.28811e+22 0.000551159 9.27279 2.12051 10.391 
0.0140625 0.00154688 3.85984 8.42859e+22 0.000560501 14.1364 2.48218 2.74123 
0.0136875 0.00164063 3.91573 8.82995e+22 0.000587192 19.1868 0.235981 -2.34794 
0.0140625 0.00164063 4.2136 8.3443e+22 0.000554896 9.60789 4.1394 4.0488 
0.0151875 0.00154688 3.99377 7.91351e+22 0.000526248 11.8594 11.3457 -0.0730746 
0.0155625 0.00154688 3.89758 7.96033e+22 0.000529362 16.6587 8.6673 -1.14595 
0.0151875 0.00164063 3.98665 7.52753e+22 0.000500581 16.2561 0.874674 -1.16183 
0.0155625 0.00164063 4.13262 8.32223e+22 0.000553428 16.8238 0.793346 -2.57797 
0.0144375 0.00173438 3.94308 8.1856e+22 0.000544343 15.6075 0.335831 -3.25154 
0.0148125 0.00173438 3.9237 8.47795e+22 0.000563783 16.3116 -2.74718 3.69942 
0.0144375 0.00182813 4.14719 8.59788e+22 0.000571759 6.38894 0.815328 -3.06984 
0.0148125 0.00182813 3.78194 8.14223e+22 0.000541458 12.1032 -1.54007 3.87946 
0.0069375 0.000984375 4.04055 1.08167e+23 0.00071931 24.0475 -0.469678 2.05859 
0.0073125 0.000984375 3.60016 1.08903e+23 0.000724203 19.0188 4.60318 -1.92688 
0.0069375 0.00107813 3.76083 1.07831e+23 0.000717076 12.3024 -5.24194 -9.19543 
0.0073125 0.00107813 4.03217 1.06823e+23 0.000710374 17.7607 -3.61954 -1.58946 
0.0114375 0.00117188 3.74526 9.14783e+22 0.000608331 25.0277 7.88404 7.25031 
0.0118125 0.00117188 3.82715 9.54959e+22 0.000635048 16.5024 -5.837 0.505278 
0.0114375 0.00126563 4.14908 8.95668e+22 0.000595619 15.8945 2.0648 13.6125 
0.0118125 0.00126563 3.86882 8.24129e+22 0.000548046 15.8723 -2.23891 -3.63177 
0.0069375 0.00192187 3.97201 9.79909e+22 0.00065164 3.49405 2.61228 8.63136 
0.0073125 0.00192187 3.89539 9.931e+22 0.000660412 1.69775 -3.33416 1.17189 
0.0069375 0.00201563 3.8934 9.96498e+22 0.000662671 6.25194 7.3974 -23.4366 
0.0073125 0.00201563 4.07276 1.01292e+23 0.000673594 -1.02621 9.83342 -8.98889 
0.0091875 0.00154688 3.86914 8.452e+22 0.000562058 14.8493 -2.32325 -7.45145 
0.0095625 0.00154688 3.86286 9.83335e+22 0.000653918 17.3603 0.31144 0.411292 
0.0091875 0.00164063 4.06251 9.71294e+22 0.000645911 7.92226 3.3081 -1.99599 
0.0095625 0.00164063 3.9061 1.05518e+23 0.000701694 5.23902 1.55901 -4.11491 
0.0129375 0.00192187 3.9884 8.85687e+22 0.000588982 11.7708 -0.544994 0.282451 
0.0133125 0.00192187 4.04326 8.59305e+22 0.000571438 4.59477 2.6145 2.76323 
0.0129375 0.00201563 3.93923 7.88438e+22 0.000524311 14.0329 -3.81259 6.9011 
0.0133125 0.00201563 4.23376 8.3224e+22 0.00055344 -11.9551 -7.20278 1.99443 
0.0061875 0.000984375 3.87306 1.09639e+23 0.000729096 31.2003 -4.80873 9.38487 
0.0065625 0.000984375 3.97822 1.0228e+23 0.000680164 24.6218 1.8054 1.30988 
0.0061875 0.00107813 3.92553 1.15893e+23 0.000770689 9.64147 -8.71194 -0.994189 
0.0065625 0.00107813 3.59268 1.01113e+23 0.000672398 9.63673 2.48779 -3.63155 
0.0069375 0.00117188 3.59973 1.11875e+23 0.000743972 20.8483 3.76984 -6.71059 
0.0073125 0.00117188 4.1967 1.03531e+23 0.000688482 26.8192 -0.766177 -0.00382957 
0.0069375 0.00126563 4.12404 1.07022e+23 0.000711698 12.0967 3.80951 3.5605 
0.0073125 0.00126563 4.02203 9.07114e+22 0.000603231 21.9889 0.40523 2.12688 
0.0106875 0.00135937 3.98072 9.21816e+22 0.000613008 21.7632 5.28068 -8.67487 
0.0110625 0.00135937 4.10784 8.57875e+22 0.000570487 28.0688 -6.25755 -1.03833 
0.0106875 0.00145312 3.92757 9.89453e+22 0.000657986 10.9273 2.57659 -0.804897 
0.0110625 0.00145312 3.59638 9.2216e+22 0.000613236 25.596 -1.9354 0.102124 
0.0114375 0.00135937 4.05769 8.97838e+22 0.000597063 26.6507 10.8564 2.91619 
0.0118125 0.00135937 4.0401 9.00503e+22 0.000598834 17.3293 -6.43636 -1.08056 
0.0114375 0.00145312 4.04833 9.67022e+22 0.00064307 18.9201 2.3434 -2.43642 
0.0118125 0.00145312 3.97287 9.32129e+22 0.000619866 14.5192 7.05465 -3.73124 
0.0144375 0.00154688 3.81165 8.59248e+22 0.0005714 13.0412 -2.91799 -0.872562 
0.0148125 0.00154688 4.2787 8.17105e+22 0.000543375 17.7957 -5.39991 2.28059 
0.0144375 0.00164063 4.10306 7.96903e+22 0.00052994 21.3929 2.79787 7.41752 
0.0148125 0.00164063 3.82018 8.41053e+22 0.0005593 19.9937 0.2681 0.190293 
0.0091875 0.00192187 3.93451 9.70487e+22 0.000645374 1.53914 -2.24152 4.40067 
0.0095625 0.00192187 3.97515 9.81794e+22 0.000652893 5.0718 -3.47507 0.270058 
0.0091875 0.00201563 3.76325 9.80072e+22 0.000651748 13.4123 4.24929 3.16763 
0.0095625 0.00201563 4.25585 9.91023e+22 0.00065903 9.00976 -6.22634 25.0804 
0.0166875 0.00192187 4.24501 7.4247e+22 0.000493742 6.82848 2.80492 -3.12599 
0.0170625 0.00192187 4.13615 7.93349e+22 0.000527577 6.66485 -3.0703 -1.01755 
0.0166875 0.00201563 3.94333 7.66537e+22 0.000509747 0.428948 -2.44816 12.1135 
0.0170625 0.00201563 3.74897 7.22735e+22 0.000480619 -7.5875 -8.18645 9.02404 
0.0114375 0.00192187 4.13857 8.59305e+22 0.000571438 2.45986 3.9484 -3.26888 
0.0118125 0.00192187 3.92934 9.29029e+22 0.000617804 -5.15361 5.85875 -3.05734 
0.0114375 0.00201563 3.84227 8.65092e+22 0.000575286 10.1596 3.84757 -1.58816 
0.0118125 0.00201563 3.90006 1.02387e+23 0.000680876 10.7746 6.48512 2.5685 
0.0091875 0.00117188 3.78949 1.04458e+23 0.000694648 26.1793 -2.32417 -1.56427 
0.0095625 0.00117188 3.93332 1.01986e+23 0.000678206 15.0907 -6.07092 -7.33015 
0.0091875 0.00126563 3.70858 1.00155e+23 0.000666028 17.3016 3.90692 3.83237 
0.0095625 0.00126563 3.8959 8.72775e+22 0.000580395 19.8578 4.3372 -3.56943 
0.0151875 0.00192187 3.87843 8.51767e+22 0.000566425 6.46142 6.39213 8.3309 
0.0155625 0.00192187 3.87209 7.82043e+22 0.000520058 8.39165 -0.538031 -3.8667 
0.0151875 0.00201563 4.0619 8.48666e+22 0.000564363 -0.142471 1.17469 -7.74643 
0.0155625 0.00201563 4.27875 8.65092e+22 0.000575286 1.24748 -10.6285 2.02041 
0.0091875 0.00135937 3.9925 1.04171e+23 0.000692734 12.9496 -0.969771 2.69884 
0.0095625 0.00135937 3.80896 9.61779e+22 0.000639583 17.8563 1.88435 -6.72109 
0.0091875 0.00145312 3.96701 1.01687e+23 0.000676218 14.4715 -4.64868 -7.17888 
0.0095625 0.00145312 3.95554 9.44591e+22 0.000628153 15.7167 -4.89541 -3.97356 
0.0076875 0.000984375 3.80323 9.74974e+22 0.000648357 26.5908 -2.08387 -1.08539 
0.0080625 0.000984375 3.97624 1.00073e+23 0.000665484 20.3543 4.77117 -6.71795 
0.0076875 0.00107813 3.6823 9.97688e+22 0.000663463 20.3332 6.9685 -1.71263 
0.0080625 0.00107813 3.88793 9.84251e+22 0.000654527 9.63945 3.71548 -8.07338 
0.0129375 0.00154688 3.84761 9.29486e+22 0.000618108 24.0992 -0.830088 1.18022 
0.0133125 0.00154688 3.91046 9.7397e+22 0.00064769 12.4278 -0.494219 -3.30983 
0.0129375 0.00164063 3.90366 9.42597e+22 0.000626827 9.67103 -3.32199 0.668265 
0.0133125 0.00164063 4.04236 9.00655e+22 0.000598936 8.25778 -7.81933 -2.94978 
0.0091875 0.000984375 3.66249 9.16107e+22 0.000609211 19.6658 11.2734 -3.99706 
0.0095625 0.000984375 3.8162 8.42524e+22 0.000560279 29.8578 -9.52747 -0.353737 
0.0091875 0.00107813 3.89211 1.03128e+23 0.000685802 36.3126 -0.259914 -2.3822 
0.0095625 0.00107813 3.70144 1.00105e+23 0.000665697 28.1345 7.62339 -0.754428 
0.0099375 0.00117188 3.87415 9.98226e+22 0.00066382 13.556 -1.2611 -2.06924 
0.0103125 0.00117188 3.86628 8.9933e+22 0.000598055 18.337 -7.46072 1.39482 
0.0099375 0.00126563 4.05633 9.07114e+22 0.000603231 19.2954 -5.59117 -4.86508 
0.0103125 0.00126563 3.66781 9.67207e+22 0.000643192 20.3881 5.89753 2.7372 
0.0144375 0.00192187 3.92048 9.21491e+22 0.000612792 4.15996 -5.95734 5.70894 
0.0148125 0.00192187 3.98607 8.06541e+22 0.000536349 -0.99237 3.13365 7.18418 
0.0144375 0.00201563 4.1864 9.69122e+22 0.000644466 2.18628 -2.71869 1.86108 
0.0148125 0.00201563 4.00126 7.61062e+22 0.000506106 0.383976 20.2761 2.26727 
0.0084375 0.00117188 3.90718 1.09094e+23 0.000725475 14.9257 -0.585212 -1.04242 
0.0088125 0.00117188 3.8694 1.00132e+23 0.000665875 27.7662 4.24631 -8.65134 
0.0084375 0.00126563 3.75459 1.01585e+23 0.000675542 24.0299 -7.90343 8.22507 
0.0088125 0.00126563 4.20402 1.01871e+23 0.000677445 26.9001 -8.3354 2.39676 
0.0099375 0.000984375 3.799 9.0507e+22 0.000601871 21.4485 -0.0138621 0.217065 
0.0103125 0.000984375 3.81556 9.08749e+22 0.000604318 30.071 -2.31496 0.977897 
0.0099375 0.00107813 4.15919 9.20426e+22 0.000612083 32.2743 5.34776 7.56666 
0.0103125 0.00107813 3.7108 8.93553e+22 0.000594212 21.6635 -3.3183 4.42408 
0.0054375 0.000609375 3.80951 1.06384e+23 0.000707453 6.30022 -8.66227 -0.370867 
0.0058125 0.000609375 3.99134 9.50918e+22 0.00063236 21.9861 -3.23954 9.45258 
0.0054375 0.000703125 3.9266 1.07137e+23 0.000712459 16.6114 0.687934 -1.17328 
0.0058125 0.000703125 3.69221 1.05591e+23 0.000702183 16.3978 2.64181 -1.32192 
0.0174375 0.00192187 3.7335 7.82043e+22 0.000520058 3.80554 8.48295 4.46872 
0.0178125 0.00192187 3.69152 6.93474e+22 0.00046116 5.67766 -0.391968 -7.41953 
0.0174375 0.00201563 4.23774 7.22735e+22 0.000480619 11.8359 -5.54175 17.6186 
0.0178125 0.00201563 3.59781 7.22735e+22 0.000480619 -5.20092 -12.1986 4.42241 
0.0069375 0.000796875 4.16545 1.10439e+23 0.000734421 20.9482 6.01871 5.86967 
0.0073125 0.000796875 4.35843 9.95317e+22 0.000661886 23.4782 2.96107 -7.09409 
0.0069375 0.000890625 3.8658 1.01661e+23 0.000676043 24.807 4.64275 -1.88667 
0.0073125 0.000890625 3.90243 9.96274e+22 0.000662522 14.0589 0.35032 11.7083 
0.0114375 0.000984375 4.01472 8.94032e+22 0.000594532 26.046 11.6277 -4.5247 
0.0118125 0.000984375 3.63809 7.72621e+22 0.000513793 37.5492 7.90666 10.6571 
0.0114375 0.00107813 3.64924 8.56601e+22 0.00056964 20.2596 -10.5927 1.09975 
0.0118125 0.00107813 4.08033 9.9097e+22 0.000658995 21.845 -1.24779 -1.25937 
0.009 0.01875 0 0 0 0 0 0 
0.009 0.02475 0 0 0 0 0 0 
0.003 0.01875 0 0 0 0 0 0 
0.003 0.02475 0 0 0 0 0 0 
0.003 0.02025 0 0 0 0 0 0 
0.003 0.02625 0 0 0 0 0 0 
0.009 0.02025 0 0 0 0 0 0 
0.009 0.02625 0 0 0 0 0 0 
0.015 0.02025 0 0 0 0 0 0 
0.015 0.02625 0 0 0 0 0 0 
0.003 0.01575 0 0 0 0 0 0 
0.003 0.02175 0 0 0 0 0 0 
0.003 0.02775 0 0 0 0 0 0 
0.009 0.01575 0 0 0 0 0 0 
0.009 0.02175 0 0 0 0 0 0 
0.009 0.02775 0 0 0 0 0 0 
0.003 0.01725 0 0 0 0 0 0 