ITEM: TIMESTEP
500000
ITEM: NUMBER OF CELLS
35795
ITEM: BOX BOUNDS oo ao pp
0 0.12
0 0.03
-0.1 0.1
ITEM: CELLS xc yc f_out[1] f_out[2] f_out[3] f_out[4] f_out[5] f_out[6] 
0.003 0.00375 0 0 0 0 0 0 
0.003 0.00525 0 0 0 0 0 0 
0.003 0.00675 0 0 0 0 0 0 
0.003 0.00825 0 0 0 0 0 0 
0.003 0.00975 0 0 0 0 0 0 
0.003 0.01125 0 0 0 0 0 0 
0.003 0.01275 0 0 0 0 0 0 
0.003 0.01425 0 0 0 0 0 0 
0.003 0.01575 0 0 0 0 0 0 
0.003 0.01725 0 0 0 0 0 0 
0.003 0.01875 0 0 0 0 0 0 
0.003 0.02025 0 0 0 0 0 0 
0.003 0.02175 0 0 0 0 0 0 
0.003 0.02325 0 0 0 0 0 0 
0.027 0.02325 0 0 0 0 0 0 
0.003 0.02475 0 0 0 0 0 0 
0.027 0.02475 0 0 0 0 0 0 
0.003 0.02625 0 0 0 0 0 0 
0.027 0.02625 0 0 0 0 0 0 
0.003 0.02775 0 0 0 0 0 0 
0.027 0.02775 0 0 0 0 0 0 
0.003 0.02925 0 0 0 0 0 0 
0.027 0.02925 0 0 0 0 0 0 
0.009 0.01425 0 0 0 0 0 0 
0.009 0.01575 0 0 0 0 0 0 
0.009 0.01725 0 0 0 0 0 0 
0.009 0.01875 0 0 0 0 0 0 
0.009 0.02025 0 0 0 0 0 0 
0.009 0.02175 0 0 0 0 0 0 
0.009 0.02325 0 0 0 0 0 0 
0.009 0.02475 0 0 0 0 0 0 
0.009 0.02625 0 0 0 0 0 0 
0.009 0.02775 0 0 0 0 0 0 
0.009 0.02925 0 0 0 0 0 0 
0.015 0.01425 0 0 0 0 0 0 
0.015 0.01575 0 0 0 0 0 0 
0.015 0.01725 0 0 0 0 0 0 
0.015 0.01875 0 0 0 0 0 0 
0.015 0.02025 0 0 0 0 0 0 
0.015 0.02175 0 0 0 0 0 0 
0.015 0.02325 0 0 0 0 0 0 
0.015 0.02475 0 0 0 0 0 0 
0.015 0.02625 0 0 0 0 0 0 
0.015 0.02775 0 0 0 0 0 0 
0.015 0.02925 0 0 0 0 0 0 
0.021 0.02325 0 0 0 0 0 0 
0.021 0.02475 0 0 0 0 0 0 
0.021 0.02625 0 0 0 0 0 0 
0.021 0.02775 0 0 0 0 0 0 
0.021 0.02925 0 0 0 0 0 0 
0.0015 0.000375 0 0 0 0 0 0 
0.0015 0.001125 0 0 0 0 0 0 
0.0015 0.001875 0 0 0 0 0 0 
0.0015 0.002625 0 0 0 0 0 0 
0.0045 0.002625 0 0 0 0 0 0 
0.0255 0.022125 0 0 0 0 0 0 
0.0285 0.022125 0 0 0 0 0 0 
0.0105 0.000375 1.98329 3.56614e+21 2.37148e-05 2.54481 5.9908 0.289155 
0.0105 0.001125 2.15108 3.72274e+21 2.47562e-05 1.32757 3.54758 1.13273 
0.0075 0.013125 0 0 0 0 0 0 
0.0105 0.013125 0 0 0 0 0 0 
0.0135 0.013125 0 0 0 0 0 0 
0.0165 0.013125 0 0 0 0 0 0 
0.0195 0.022125 0 0 0 0 0 0 
0.0225 0.022125 0 0 0 0 0 0 
0.00375 0.0001875 1.89103 7.83664e+21 5.21137e-05 30.1437 0.432144 -0.219275 
0.00525 0.0001875 1.97885 6.29263e+21 4.1846e-05 39.172 1.63884 -4.65556 
0.00375 0.0016875 1.97843 8.28092e+21 5.50681e-05 14.6581 0.25271 1.57037 
0.00525 0.0016875 2.00244 6.15788e+21 4.09499e-05 15.876 0.0712129 0.787256 
0.00375 0.0020625 0 0 0 0 0 0 
0.00525 0.0020625 0 0 0 0 0 0 
0.01125 0.0061875 0 0 0 0 0 0 
0.01125 0.0065625 0 0 0 0 0 0 
0.01125 0.0069375 0 0 0 0 0 0 
0.01125 0.0073125 0 0 0 0 0 0 
0.01125 0.0091875 0 0 0 0 0 0 
0.01125 0.0054375 0 0 0 0 0 0 
0.01125 0.0058125 0 0 0 0 0 0 
0.01125 0.0076875 0 0 0 0 0 0 
0.01125 0.0080625 0 0 0 0 0 0 
0.01125 0.0084375 0 0 0 0 0 0 
0.01125 0.0088125 0 0 0 0 0 0 
0.01275 0.0024375 2.07513 2.47901e+21 1.64854e-05 0.432751 -1.34956 -0.448945 
0.003375 0.00121875 1.89411 8.38211e+21 5.5741e-05 20.9552 -3.8464 3.50122 
0.004125 0.00121875 1.99891 7.37333e+21 4.90326e-05 22.6529 2.40452 -5.72476 
0.003375 0.00140625 2.05624 8.52467e+21 5.6689e-05 19.7473 0.415242 2.25798 
0.004125 0.00140625 1.95288 7.54915e+21 5.02018e-05 18.5788 0.75509 1.76103 
0.004875 0.00121875 1.95539 6.49113e+21 4.3166e-05 27.5689 -1.34926 -1.97153 
0.005625 0.00121875 1.84177 5.75751e+21 3.82874e-05 21.682 1.21794 -1.02092 
0.004875 0.00140625 1.98874 6.55118e+21 4.35653e-05 17.7284 3.53892 -2.82787 
0.005625 0.00140625 1.90236 5.5854e+21 3.71429e-05 20.8187 -1.93385 0.43546 
0.025875 0.00571875 1.97678 2.47579e+21 1.6464e-05 0.142618 -2.23792 0.728362 
0.024375 0.0216562 1.96617 2.57146e+21 1.71002e-05 1.23522 -0.103173 1.98601 
0.025125 0.0216562 1.92734 2.41409e+21 1.60537e-05 -0.377772 -2.90743 0.967369 
0.025875 0.0216562 1.94759 2.34256e+21 1.55781e-05 2.36505 -2.96781 1.09563 
0.026625 0.0216562 1.97477 2.60364e+21 1.73142e-05 1.22861 -1.20406 2.77518 
0.027375 0.0216562 2.04109 2.38548e+21 1.58635e-05 0.72554 -4.98754 -1.19874 
0.028125 0.0216562 1.97202 2.49993e+21 1.66245e-05 -1.72313 -2.01842 -1.43381 
0.028875 0.0216562 1.93965 2.5035e+21 1.66483e-05 4.25095 -0.400868 0.0456918 
0.029625 0.0216562 2.00298 2.57503e+21 1.7124e-05 2.53818 -2.26124 1.69481 
0.006375 0.00346875 1.87838 3.04048e+21 2.02192e-05 -1.49623 2.38563 1.60705 
0.007125 0.00346875 1.98807 2.9169e+21 1.93974e-05 0.981446 1.26747 -4.7017 
0.006375 0.00365625 1.95081 2.96001e+21 1.96841e-05 0.783599 5.36439 -2.04845 
0.007875 0.00384375 1.98362 2.97094e+21 1.97567e-05 -2.09628 12.3399 -0.399884 
0.008625 0.00384375 1.94638 2.92088e+21 1.94239e-05 0.853648 9.95495 -2.60039 
0.007875 0.00403125 1.92498 3.01524e+21 2.00514e-05 -0.458544 8.00628 -2.31312 
0.008625 0.00403125 1.88153 2.76257e+21 1.83711e-05 -2.59513 5.86713 1.59803 
0.006375 0.00534375 1.95412 2.74404e+21 1.82479e-05 0.476735 4.47687 -2.0301 
0.006375 0.00553125 1.94755 2.9426e+21 1.95683e-05 -6.67459 2.27822 1.95836 
0.008625 0.00590625 1.94755 2.88583e+21 1.91908e-05 -0.548324 2.70499 -1.2178 
0.006375 0.00609375 1.95309 2.72321e+21 1.81093e-05 1.27064 2.21284 1.2336 
0.006375 0.00628125 2.06201 2.72976e+21 1.81529e-05 -2.3379 3.14641 -1.39653 
0.006375 0.00646875 1.97396 2.83762e+21 1.88702e-05 -0.505204 2.71032 -0.162197 
0.006375 0.00665625 1.93062 2.92985e+21 1.94835e-05 0.441096 3.98952 0.246722 
0.006375 0.00834375 1.96656 2.76202e+21 1.83675e-05 -1.72012 3.73175 -2.05426 
0.006375 0.00928125 1.93509 2.69338e+21 1.7911e-05 5.05655 2.48134 -2.9485 
0.010125 0.00946875 2.02952 2.58544e+21 1.71932e-05 -2.20022 -0.170225 1.84129 
0.006375 0.0100312 2.05377 2.70144e+21 1.79646e-05 -0.749972 3.03774 -2.04462 
0.006375 0.0105937 1.95655 2.6241e+21 1.74503e-05 -0.0484645 -0.02961 -0.0920261 
0.012375 0.00946875 1.99058 2.58022e+21 1.71584e-05 2.22073 -0.483929 -1.99838 
0.019875 0.0216562 1.94321 2.55357e+21 1.69813e-05 0.647241 -4.41188 -3.16197 
0.020625 0.0216562 1.98763 2.4892e+21 1.65532e-05 -1.59875 -1.83837 0.493089 
0.021375 0.0216562 1.96375 2.31753e+21 1.54116e-05 -3.24486 1.07197 2.3609 
0.022125 0.0216562 2.00587 2.52854e+21 1.68148e-05 -0.389633 -0.495505 1.31348 
0.022875 0.0216562 1.96567 2.49277e+21 1.6577e-05 0.977914 -2.00995 -0.505686 
0.023625 0.0216562 1.95793 2.47847e+21 1.64818e-05 -1.54169 2.52102 3.73615 
0.003375 0.00084375 1.8564 8.31287e+21 5.52806e-05 17.5083 -1.55453 -2.49705 
0.004125 0.00084375 1.97174 7.28356e+21 4.84357e-05 28.7885 -1.86348 1.17793 
0.003375 0.00103125 1.93892 8.46209e+21 5.62729e-05 19.3832 -4.37845 1.26964 
0.004125 0.00103125 2.0028 7.30917e+21 4.8606e-05 18.5391 1.66741 4.27199 
0.007875 0.00234375 1.93836 3.1436e+21 2.09049e-05 4.04924 9.78953 -4.89652 
0.008625 0.00234375 2.0501 3.23052e+21 2.1483e-05 0.978703 11.0864 2.08069 
0.007875 0.00253125 2.05086 3.28185e+21 2.18243e-05 -1.43928 12.5936 -0.779826 
0.008625 0.00253125 1.99512 3.60825e+21 2.39948e-05 -1.7984 13.5124 -2.53782 
0.007875 0.00346875 2.02228 3.05068e+21 2.0287e-05 -1.24645 6.77318 -2.99976 
0.008625 0.00346875 1.9524 2.87775e+21 1.9137e-05 0.328333 8.49818 -0.709487 
0.007875 0.00365625 2.06431 2.89114e+21 1.92261e-05 -2.36882 7.06181 1.63375 
0.008625 0.00365625 2.03868 2.92828e+21 1.94731e-05 2.79863 11.9046 -0.287833 
0.006375 0.00571875 1.94107 2.82014e+21 1.8754e-05 4.24227 -0.826985 0.0624359 
0.006375 0.00590625 2.02019 2.92823e+21 1.94727e-05 0.196608 -0.0757239 -2.10783 
0.006375 0.00759375 1.89703 2.83082e+21 1.88249e-05 -2.40788 -0.338512 -1.67597 
0.006375 0.00796875 2.07727 2.87336e+21 1.91078e-05 -2.54097 1.95197 -1.2237 
0.010875 0.00946875 2.04764 2.56492e+21 1.70567e-05 5.91259 4.2264 2.13301 
0.011625 0.00946875 1.83906 2.5444e+21 1.69203e-05 -5.24361 7.03781 0.542685 
0.016875 0.00553125 2.04924 2.49424e+21 1.65867e-05 -2.0619 -1.18815 -2.574 
0.017625 0.00553125 2.00521 2.43285e+21 1.61785e-05 1.34589 0.0350358 2.49618 
0.012375 0.00909375 1.87736 2.61357e+21 1.73802e-05 -13.5177 3.67457 -1.83633 
0.012375 0.00928125 1.65517 2.43273e+21 1.61777e-05 -0.666865 7.05956 1.80752 
0.019875 0.00515625 1.99819 2.47809e+21 1.64793e-05 3.14492 -1.65478 -2.15102 
0.020625 0.00515625 1.95872 2.44517e+21 1.62604e-05 1.92463 -1.51761 0.719806 
0.022875 0.00571875 1.97008 2.45798e+21 1.63456e-05 -0.287631 0.502207 -1.74844 
0.018375 0.0158438 0 0 0 0 0 0 
0.018375 0.0160313 0 0 0 0 0 0 
0.018375 0.0184687 0 0 0 0 0 0 
0.018375 0.0186562 0 0 0 0 0 0 
0.018375 0.0195938 0 0 0 0 0 0 
0.018375 0.0197812 0 0 0 0 0 0 
0.0241875 0.0144844 1.91582 2.49414e+21 1.6586e-05 -2.44391 1.92704 0.964641 
0.0245625 0.0144844 1.9562 2.50977e+21 1.66899e-05 -0.189528 -1.67573 2.13107 
0.0241875 0.0145781 1.96253 2.39425e+21 1.59218e-05 1.82569 -2.1759 -1.46361 
0.0245625 0.0145781 2.04454 2.58368e+21 1.71815e-05 3.67836 0.614756 0.28843 
0.0271875 0.0180469 2.05395 2.4458e+21 1.62645e-05 2.66271 3.71961 3.16462 
0.0275625 0.0180469 2.00036 2.51854e+21 1.67483e-05 0.845227 1.87854 1.83639 
0.0275625 0.0181406 1.98519 2.523e+21 1.67779e-05 -0.346143 1.52585 1.46944 
0.0279375 0.0180469 1.95014 2.42824e+21 1.61478e-05 1.06536 -1.10504 -0.661625 
0.0279375 0.0181406 2.02344 2.53797e+21 1.68775e-05 1.59781 0.0866202 -1.03342 
0.0283125 0.0181406 2.02624 2.518e+21 1.67447e-05 -0.466968 2.86624 -3.76732 
0.0241875 0.0212344 1.94509 2.58606e+21 1.71973e-05 -1.38417 0.934779 0.660258 
0.0245625 0.0212344 1.90973 2.49652e+21 1.66019e-05 -0.117992 -1.61341 -1.19444 
0.0245625 0.0213281 1.98114 2.49828e+21 1.66136e-05 0.307484 -2.01845 1.74868 
0.0264375 0.0214219 2.03526 2.48735e+21 1.65409e-05 -0.248368 0.0406463 0.546103 
0.0268125 0.0214219 1.98203 2.56554e+21 1.70608e-05 1.48196 -3.14429 -3.62678 
0.0264375 0.0215156 2.01672 2.56488e+21 1.70565e-05 0.913755 1.10242 4.28889 
0.0268125 0.0215156 1.95461 2.4702e+21 1.64268e-05 -2.98073 -0.929917 -0.847881 
0.0076875 0.0101719 2.0506 2.6926e+21 1.79058e-05 -0.0993408 0.143576 -1.04761 
0.0080625 0.0101719 1.93754 2.43447e+21 1.61892e-05 3.44346 1.70829 4.34195 
0.0076875 0.0102656 1.93015 2.70329e+21 1.79769e-05 1.727 4.62507 1.50288 
0.0080625 0.0102656 2.07063 2.6636e+21 1.77129e-05 -2.09685 0.484268 1.8428 
0.0211875 0.0144844 1.99625 2.29098e+21 1.5235e-05 -0.365914 -1.5436 -2.61774 
0.0215625 0.0144844 2.05912 2.52227e+21 1.67731e-05 0.504701 1.33345 2.33113 
0.0211875 0.0145781 2.13334 2.4781e+21 1.64794e-05 2.9341 5.58633 -1.14052 
0.0215625 0.0145781 1.94232 2.40357e+21 1.59837e-05 -1.25904 -2.79386 0.773905 
0.0196875 0.0163594 1.97692 2.44903e+21 1.62861e-05 -2.64541 5.24869 0.0189347 
0.0200625 0.0163594 2.05623 2.50991e+21 1.66909e-05 -2.80894 0.300107 0.175697 
0.0196875 0.0164531 2.03702 2.66345e+21 1.77119e-05 -3.0075 -0.426881 0.761429 
0.0200625 0.0164531 2.04627 2.39105e+21 1.59005e-05 -0.430479 -0.546826 2.21459 
0.0234375 0.0165469 1.96172 2.39666e+21 1.59378e-05 1.81655 -2.2808 0.346267 
0.0238125 0.0165469 1.9298 2.37203e+21 1.5774e-05 -4.32344 1.93878 -1.22129 
0.0234375 0.0166406 2.04559 2.49469e+21 1.65897e-05 -2.07521 0.288782 -1.89339 
0.0196875 0.0172969 2.00674 2.54138e+21 1.69002e-05 -1.86196 -2.13999 -3.52572 
0.0200625 0.0172969 2.0178 2.52829e+21 1.68131e-05 -4.12664 3.92707 3.01686 
0.0196875 0.0173906 1.96102 2.51466e+21 1.67225e-05 2.49425 1.52511 -2.17716 
0.0200625 0.0173906 2.07499 2.47041e+21 1.64282e-05 3.55829 -0.530951 0.598177 
0.0204375 0.0206719 2.01081 2.54474e+21 1.69225e-05 -1.20908 -2.23749 0.0949044 
0.0208125 0.0206719 1.95147 2.42648e+21 1.61361e-05 1.66354 0.659263 0.973629 
0.0204375 0.0207656 1.99316 2.46785e+21 1.64112e-05 2.97567 -2.31983 -1.21154 
0.0208125 0.0207656 2.08684 2.48965e+21 1.65562e-05 -1.22089 -1.09041 5.14514 
0.0211875 0.0215156 2.05007 2.55647e+21 1.70005e-05 1.78743 -0.405965 1.63095 
0.0215625 0.0215156 2.07951 2.43864e+21 1.62169e-05 0.0490079 2.33378 0.515423 
0.01125 0.0046875 0 0 0 0 0 0 
0.01125 0.0050625 0 0 0 0 0 0 
0.01275 0.0016875 2.04722 2.47732e+21 1.64741e-05 -2.81184 3.8374 -2.81984 
0.004875 0.00084375 1.92484 7.33721e+21 4.87925e-05 29.4083 -1.20464 -0.20871 
0.005625 0.00084375 1.77016 5.56662e+21 3.70181e-05 34.322 -0.0127992 -9.00764 
0.004875 0.00103125 1.98352 6.58483e+21 4.37892e-05 25.9786 -5.21679 0.0271294 
0.005625 0.00103125 1.85021 6.11292e+21 4.06509e-05 31.5287 3.61571 0.432242 
0.027375 0.00346875 1.98491 2.32961e+21 1.54919e-05 -0.62184 0.521378 2.24402 
0.028125 0.00346875 1.93666 2.53842e+21 1.68805e-05 -4.3157 0.0714454 0.893871 
0.027375 0.00365625 2.0364 2.41444e+21 1.6056e-05 -3.37144 1.69492 -0.711044 
0.028125 0.00365625 1.97896 2.35563e+21 1.56649e-05 -1.49162 -1.03208 2.461 
0.024375 0.00496875 1.98282 2.64449e+21 1.75859e-05 0.465913 -2.93383 -2.69512 
0.025125 0.00496875 2.03006 2.46227e+21 1.63741e-05 1.71718 -4.44584 -0.743754 
0.024375 0.00515625 1.94353 2.4737e+21 1.64501e-05 3.33505 0.146582 -0.45081 
0.025125 0.00515625 1.98633 2.57248e+21 1.7107e-05 -0.867913 2.29429 0.26914 
0.028125 0.00534375 1.96358 2.54787e+21 1.69433e-05 -0.32044 -1.56909 -0.93357 
0.028125 0.00553125 2.01032 2.46764e+21 1.64098e-05 -0.694439 1.57227 1.09546 
0.007875 0.00271875 2.06442 3.20121e+21 2.12881e-05 7.74609 12.3374 -3.6317 
0.008625 0.00271875 2.05621 3.1804e+21 2.11497e-05 -0.277686 3.85618 0.813749 
0.006375 0.00496875 2.07409 2.92124e+21 1.94263e-05 -2.98173 4.00896 3.63514 
0.006375 0.00515625 2.06065 2.88087e+21 1.91578e-05 -1.18489 5.59685 0.212468 
0.009375 0.00646875 2.03343 2.75809e+21 1.83413e-05 -0.401234 1.16426 1.87177 
0.010125 0.00646875 0 0 0 0 0 0 
0.009375 0.00665625 2.01587 2.75017e+21 1.82886e-05 1.52525 3.11953 -0.479908 
0.010125 0.00665625 0 0 0 0 0 0 
0.006375 0.00703125 2.00445 2.82188e+21 1.87655e-05 -2.74102 1.21353 -0.855739 
0.006375 0.00721875 2.03633 2.81913e+21 1.87472e-05 0.872602 2.14434 0.0732487 
0.006375 0.00740625 1.93369 2.78501e+21 1.85203e-05 -3.85986 1.71269 -0.299844 
0.010125 0.00909375 0 0 0 0 0 0 
0.010125 0.00928125 0 0 0 0 0 0 
0.014625 0.00571875 1.99413 2.39267e+21 1.59113e-05 2.27489 -1.15891 0.55369 
0.022875 0.00459375 1.99662 2.49574e+21 1.65967e-05 -0.656141 0.28152 3.67797 
0.023625 0.00459375 2.00112 2.49081e+21 1.65639e-05 1.24672 -0.96233 3.68977 
0.022875 0.00478125 2.04764 2.47598e+21 1.64653e-05 1.64692 -0.375188 -1.66785 
0.023625 0.00478125 1.96227 2.42154e+21 1.61032e-05 0.219625 -0.680109 -0.301889 
0.018375 0.00553125 1.99778 2.34282e+21 1.55798e-05 -2.04745 -1.32339 -0.0619648 
0.019125 0.00553125 1.95578 2.43899e+21 1.62193e-05 1.45308 -0.191899 3.38456 
0.020625 0.00534375 2.01416 2.57117e+21 1.70983e-05 -1.64256 -0.483593 3.21929 
0.020625 0.00553125 1.97953 2.47582e+21 1.64642e-05 0.77364 -0.555135 0.408681 
0.018375 0.0143437 0 0 0 0 0 0 
0.018375 0.0145312 0 0 0 0 0 0 
0.018375 0.0177187 0 0 0 0 0 0 
0.018375 0.0179062 0 0 0 0 0 0 
0.018375 0.0180937 0 0 0 0 0 0 
0.018375 0.0182812 0 0 0 0 0 0 
0.018375 0.0188437 0 0 0 0 0 0 
0.018375 0.0190312 0 0 0 0 0 0 
0.018375 0.0203437 0 0 0 0 0 0 
0.018375 0.0205312 0 0 0 0 0 0 
0.018375 0.0210937 0 0 0 0 0 0 
0.018375 0.0212812 0 0 0 0 0 0 
0.02025 0.0009375 2.03091 2.42349e+21 1.61162e-05 1.3192 0.446382 4.62753 
0.01875 0.0013125 1.93049 2.57828e+21 1.71455e-05 1.05758 0.538343 -1.11626 
0.010125 0.00759375 0 0 0 0 0 0 
0.010125 0.00778125 0 0 0 0 0 0 
0.010125 0.00871875 0 0 0 0 0 0 
0.010125 0.00890625 0 0 0 0 0 0 
0.021375 0.00421875 1.96539 2.42517e+21 1.61274e-05 -0.381225 -0.913362 -3.06967 
0.021375 0.00440625 2.02144 2.33225e+21 1.55094e-05 -2.98421 -0.676532 0.875842 
0.022125 0.00440625 1.97739 2.56855e+21 1.70809e-05 1.46745 5.36075 1.45349 
0.0294375 0.0141094 1.88884 2.47059e+21 1.64294e-05 0.0654542 1.45655 -2.74305 
0.0298125 0.0141094 2.04322 2.43209e+21 1.61734e-05 -0.722371 3.37536 1.23294 
0.0294375 0.0142031 2.10908 2.48297e+21 1.65117e-05 -0.66505 0.415951 0.700644 
0.0298125 0.0142031 1.95197 2.3746e+21 1.57911e-05 -1.80904 -1.01669 -0.871314 
0.0249375 0.0142969 1.95357 2.38752e+21 1.5877e-05 -2.14228 5.63801 0.500349 
0.0253125 0.0142969 1.98909 2.65351e+21 1.76458e-05 -2.16745 -3.14361 3.25857 
0.0249375 0.0143906 2.00629 2.38455e+21 1.58573e-05 -4.09441 2.67909 -0.119251 
0.0253125 0.0143906 1.94917 2.42545e+21 1.61292e-05 -1.58394 -1.19436 -4.6172 
0.0264375 0.0142969 1.98036 2.52685e+21 1.68035e-05 3.84427 1.38209 -0.881878 
0.0268125 0.0142969 2.06113 2.56801e+21 1.70773e-05 3.14035 -4.17534 2.02363 
0.0264375 0.0143906 1.92787 2.49466e+21 1.65895e-05 2.98866 2.05928 0.964656 
0.0268125 0.0143906 1.96724 2.52297e+21 1.67778e-05 -0.474381 2.03424 -4.70807 
0.0264375 0.0148594 1.94907 2.49517e+21 1.65929e-05 -0.841679 1.74688 -3.42485 
0.0268125 0.0148594 1.94281 2.39464e+21 1.59243e-05 1.67837 -1.43427 0.0627108 
0.0264375 0.0149531 2.02952 2.45531e+21 1.63278e-05 -0.152632 0.337897 -1.87826 
0.0268125 0.0149531 1.95083 2.4432e+21 1.62473e-05 1.7236 -1.1795 -0.660194 
0.0279375 0.0142969 2.00687 2.57435e+21 1.71194e-05 2.05333 3.24075 3.70747 
0.0283125 0.0142969 1.93557 2.33053e+21 1.5498e-05 1.23716 0.996675 0.935665 
0.0279375 0.0143906 2.02271 2.60791e+21 1.73426e-05 1.9454 0.232353 -4.50833 
0.0283125 0.0143906 2.02286 2.50724e+21 1.66732e-05 0.339671 -0.562946 -2.29257 
0.0294375 0.0156094 1.94652 2.4884e+21 1.65478e-05 1.35772 0.150425 -1.58279 
0.0298125 0.0156094 2.07518 2.45649e+21 1.63357e-05 2.99507 -0.075989 4.56864 
0.0294375 0.0157031 2.05513 2.51102e+21 1.66983e-05 2.56996 -0.0388556 0.106986 
0.0298125 0.0157031 1.95137 2.41876e+21 1.60848e-05 4.40873 2.84015 -2.12371 
0.0264375 0.0171094 2.00846 2.53218e+21 1.6839e-05 -0.639419 -1.5352 -2.24165 
0.0268125 0.0171094 1.9981 2.61156e+21 1.73669e-05 1.42121 1.66808 1.59501 
0.0264375 0.0172031 1.92844 2.2526e+21 1.49798e-05 -0.645168 1.70503 -1.52656 
0.0268125 0.0172031 1.9813 2.50786e+21 1.66773e-05 1.17572 -3.88326 2.16089 
0.0283125 0.0169219 1.97276 2.35692e+21 1.56735e-05 -1.02985 -1.08405 2.08047 
0.0283125 0.0170156 1.95573 2.32265e+21 1.54456e-05 3.44661 3.8423 -0.509277 
0.0279375 0.0171094 2.12803 2.50837e+21 1.66807e-05 -1.95307 -0.6357 -2.19913 
0.0283125 0.0171094 2.01927 2.58246e+21 1.71733e-05 2.37344 -1.04172 -0.655347 
0.0279375 0.0172031 1.97934 2.40523e+21 1.59948e-05 1.52519 0.477092 -5.37792 
0.0283125 0.0172031 1.96706 2.46049e+21 1.63623e-05 -2.23657 -3.24365 3.28564 
0.0245625 0.0172969 1.98944 2.43407e+21 1.61866e-05 3.02844 -1.39425 3.65257 
0.0245625 0.0173906 2.06504 2.61619e+21 1.73976e-05 1.98559 -2.03239 -0.113826 
0.0279375 0.0172969 2.00353 2.53353e+21 1.68479e-05 -1.87272 0.503117 0.176333 
0.0283125 0.0172969 2.0573 2.58849e+21 1.72134e-05 -0.154647 -2.98216 0.705657 
0.0283125 0.0173906 1.99661 2.50425e+21 1.66533e-05 2.10484 -0.676403 -0.892835 
0.0271875 0.0174844 1.95359 2.40538e+21 1.59958e-05 -0.0110208 -4.86737 -0.915916 
0.0275625 0.0174844 1.99442 2.46234e+21 1.63746e-05 -1.38948 0.648072 0.133439 
0.0271875 0.0175781 1.88384 2.4286e+21 1.61502e-05 -3.4442 1.77779 2.00339 
0.0286875 0.0172969 2.1533 2.56755e+21 1.70742e-05 1.3212 1.04122 -1.72849 
0.0290625 0.0172969 2.03424 2.53614e+21 1.68654e-05 -1.43768 2.36227 3.41579 
0.0290625 0.0173906 2.02418 2.52507e+21 1.67917e-05 0.375487 0.8918 -2.54256 
0.0286875 0.0174844 2.01871 2.4002e+21 1.59613e-05 0.756346 5.58356 2.89384 
0.0290625 0.0174844 2.03095 2.47529e+21 1.64607e-05 -0.709463 2.04621 -1.91174 
0.0286875 0.0175781 2.04428 2.52904e+21 1.68181e-05 1.70526 -0.307625 -1.86075 
0.0290625 0.0175781 2.1039 2.47754e+21 1.64756e-05 -0.369623 -2.97882 2.86565 
0.0264375 0.0182344 1.95848 2.50009e+21 1.66256e-05 -1.27632 0.116118 -3.25562 
0.0268125 0.0183281 2.01768 2.47989e+21 1.64913e-05 4.28173 2.82346 -0.967229 
0.0256875 0.0184219 2.0935 2.38618e+21 1.58681e-05 0.652056 0.423068 1.70259 
0.0256875 0.0185156 1.99055 2.36676e+21 1.5739e-05 -1.29512 -1.60375 -0.181421 
0.0256875 0.0186094 2.05732 2.48377e+21 1.65171e-05 0.0144628 3.57304 1.20118 
0.0260625 0.0186094 2.06985 2.37187e+21 1.57729e-05 -1.48755 4.15446 1.24573 
0.0260625 0.0187031 2.02094 2.51973e+21 1.67562e-05 -0.0309587 0.377128 2.19915 
0.0245625 0.0191719 2.00899 2.53605e+21 1.68647e-05 -0.64182 -0.496884 -0.517192 
0.0241875 0.0192656 1.89553 2.33337e+21 1.55169e-05 -2.02373 -0.278434 -0.970566 
0.0245625 0.0192656 2.07078 2.5566e+21 1.70014e-05 -5.05557 -0.838047 3.06928 
0.0256875 0.0193594 2.04074 2.49278e+21 1.6577e-05 0.0350474 3.15676 1.5962 
0.0256875 0.0194531 2.02148 2.59712e+21 1.72709e-05 2.00657 -1.26707 -1.64415 
0.0260625 0.0194531 2.0263 2.48542e+21 1.6528e-05 -1.61219 -2.20959 -2.06209 
0.0279375 0.0187969 1.89229 2.31931e+21 1.54234e-05 2.79573 0.395243 -0.416921 
0.0283125 0.0187969 2.01664 2.42287e+21 1.61121e-05 0.408334 -0.501147 0.80785 
0.0279375 0.0188906 2.03454 2.56901e+21 1.70839e-05 -0.668447 -1.94052 -2.16432 
0.0283125 0.0188906 2.00925 2.48753e+21 1.65421e-05 2.46656 -2.43054 -0.337905 
0.0286875 0.0189844 1.94046 2.56109e+21 1.70313e-05 0.166119 -1.00949 -0.845176 
0.0286875 0.0190781 1.98785 2.53902e+21 1.68845e-05 -1.7924 -2.52374 2.436 
0.0286875 0.0191719 2.00187 2.44632e+21 1.6268e-05 -2.64122 0.491145 -0.642185 
0.0290625 0.0191719 2.03516 2.49827e+21 1.66135e-05 4.39063 0.093634 0.528041 
0.0286875 0.0192656 1.97429 2.46731e+21 1.64076e-05 -0.303677 1.73171 -0.310965 
0.0241875 0.0196406 2.06556 2.49166e+21 1.65695e-05 -1.84556 1.15657 0.352099 
0.0245625 0.0196406 2.02972 2.47322e+21 1.64469e-05 -0.719708 -3.5478 1.48448 
0.0256875 0.0201094 2.07844 2.59566e+21 1.72612e-05 -2.09246 3.46963 -3.41773 
0.0260625 0.0201094 2.04266 2.50111e+21 1.66324e-05 1.74222 0.961082 1.57217 
0.0256875 0.0202031 2.06971 2.46038e+21 1.63615e-05 0.795078 -1.84811 -1.02232 
0.0260625 0.0202031 1.99594 2.54104e+21 1.68979e-05 3.76861 0.0152546 0.676651 
0.0268125 0.0201094 1.93944 2.42007e+21 1.60934e-05 1.12335 -0.256992 0.927806 
0.0264375 0.0202031 2.04293 2.5993e+21 1.72854e-05 0.390646 -2.35753 0.511502 
0.0283125 0.0197344 2.04446 2.49358e+21 1.65823e-05 1.38117 -0.865225 1.59728 
0.0283125 0.0199219 2.03525 2.51329e+21 1.67134e-05 -1.6165 -1.19916 0.608974 
0.0279375 0.0200156 2.00067 2.53771e+21 1.68757e-05 -1.82661 -4.02307 0.682165 
0.0279375 0.0202031 1.9378 2.50295e+21 1.66446e-05 2.60479 2.97817 -0.800299 
0.0283125 0.0202031 2.05528 2.56793e+21 1.70768e-05 0.43053 4.72176 -1.93859 
0.0271875 0.0203906 2.01202 2.5865e+21 1.72002e-05 -0.077482 -0.521163 0.322324 
0.0279375 0.0202969 1.96869 2.49808e+21 1.66122e-05 -5.93646 0.23598 -1.6892 
0.0286875 0.0204844 2.07357 2.41112e+21 1.6034e-05 3.49964 2.99685 4.46299 
0.0290625 0.0204844 2.02466 2.60119e+21 1.72979e-05 2.12878 0.41147 -1.81206 
0.0290625 0.0205781 2.02268 2.45734e+21 1.63413e-05 -1.93557 -0.304299 2.21754 
0.0298125 0.0204844 2.08194 2.46416e+21 1.63867e-05 -1.54297 -2.44066 -0.020827 
0.0298125 0.0205781 1.99299 2.44414e+21 1.62535e-05 -0.0740213 2.76749 -1.92616 
0.0271875 0.0207656 2.06373 2.49619e+21 1.65997e-05 2.89895 -1.8817 -0.429451 
0.0283125 0.0206719 2.04893 2.42648e+21 1.61361e-05 -2.06097 -2.13853 -0.0120014 
0.0283125 0.0207656 1.95778 2.47003e+21 1.64257e-05 -1.13955 -1.46366 -1.02132 
0.0249375 0.0210469 1.98207 2.43057e+21 1.61633e-05 -0.749233 1.1345 -1.06916 
0.0253125 0.0211406 2.04537 2.46476e+21 1.63907e-05 1.93221 -1.46625 -0.893673 
0.0264375 0.0213281 2.09312 2.51526e+21 1.67265e-05 -3.107 1.41308 -1.04595 
0.0268125 0.0213281 1.91683 2.43036e+21 1.61619e-05 -1.42418 -0.867156 -0.526813 
0.0249375 0.0214219 1.98277 2.47044e+21 1.64284e-05 1.14065 -4.52235 -0.471524 
0.0253125 0.0214219 1.97626 2.57611e+21 1.71311e-05 0.64916 3.22984 2.12312 
0.0275625 0.0210469 2.03698 2.33808e+21 1.55482e-05 0.702971 -0.164473 -1.0979 
0.0279375 0.0215156 1.98974 2.43864e+21 1.62169e-05 -2.11947 -0.419724 -1.36111 
0.0069375 0.0109219 1.98504 2.59475e+21 1.72551e-05 5.28486 1.43813 4.59793 
0.0073125 0.0109219 2.04448 2.69422e+21 1.79166e-05 -0.223621 3.4482 0.385144 
0.0069375 0.0110156 1.96783 2.73705e+21 1.82014e-05 -0.634389 -0.16835 1.65669 
0.0073125 0.0110156 1.97885 2.90144e+21 1.92946e-05 3.09964 1.29018 1.56916 
0.0084375 0.0114844 1.97742 2.62928e+21 1.74847e-05 4.63155 2.54752 1.89692 
0.0088125 0.0114844 2.0363 2.71994e+21 1.80876e-05 7.76686 -1.93341 0.063211 
0.0084375 0.0115781 2.06754 2.61581e+21 1.73951e-05 5.39443 0.857601 3.21328 
0.0088125 0.0115781 1.86196 2.59235e+21 1.72391e-05 0.126468 -1.52473 0.541717 
0.0211875 0.0126094 2.00107 2.61729e+21 1.7405e-05 0.332662 -0.95638 -4.46462 
0.0215625 0.0126094 1.97308 2.55984e+21 1.7023e-05 1.57384 -2.0631 2.48636 
0.0211875 0.0127031 1.96907 2.35564e+21 1.5665e-05 4.64479 3.02003 0.295554 
0.0215625 0.0127031 2.06344 2.47324e+21 1.64471e-05 -2.07695 -2.24716 4.28591 
0.0234375 0.0137344 1.96408 2.44905e+21 1.62862e-05 -1.6369 1.47423 -1.27513 
0.0234375 0.0138281 1.8857 2.40298e+21 1.59798e-05 -0.269935 0.210323 -1.02112 
0.0238125 0.0138281 1.87147 2.43245e+21 1.61758e-05 -2.49889 0.573143 -1.49019 
0.0226875 0.0150469 1.92625 2.50319e+21 1.66462e-05 -0.212496 4.44504 0.192159 
0.0230625 0.0150469 2.0037 2.38887e+21 1.5886e-05 -1.30396 -3.01204 1.7526 
0.0226875 0.0151406 1.98722 2.58637e+21 1.71993e-05 -3.85212 -1.89623 -2.6194 
0.0230625 0.0151406 2.04194 2.54451e+21 1.6921e-05 0.397333 1.92241 -2.04126 
0.0226875 0.0152344 2.04267 2.38621e+21 1.58683e-05 -3.33613 2.15712 -2.41938 
0.0230625 0.0152344 2.04247 2.51696e+21 1.67378e-05 -0.484861 -2.81254 -3.55438 
0.0230625 0.0153281 2.08308 2.43954e+21 1.6223e-05 7.39752 -3.41972 0.35386 
0.0200625 0.0161719 2.03158 2.50262e+21 1.66424e-05 1.00124 -0.0432875 0.718808 
0.0196875 0.0162656 1.9677 2.44645e+21 1.62689e-05 -3.34142 -0.221618 -0.0899308 
0.0200625 0.0162656 2.01029 2.42696e+21 1.61393e-05 2.05781 0.0117269 -0.198312 
0.0219375 0.0161719 1.90126 2.45783e+21 1.63446e-05 -3.24641 -1.98164 1.81904 
0.0223125 0.0161719 1.96347 2.53621e+21 1.68658e-05 -0.350136 -1.42542 0.56037 
0.0219375 0.0162656 2.09128 2.4715e+21 1.64354e-05 -3.01022 4.93414 0.461353 
0.0223125 0.0162656 1.99584 2.51046e+21 1.66946e-05 0.672167 -1.25853 1.49153 
0.0211875 0.0163594 2.00663 2.49884e+21 1.66173e-05 1.95701 0.00671229 -3.46359 
0.0215625 0.0163594 1.9123 2.64827e+21 1.7611e-05 -1.35382 0.802679 2.1124 
0.0211875 0.0164531 1.91847 2.48735e+21 1.65409e-05 2.77566 3.31186 -4.92575 
0.0204375 0.0167344 1.9029 2.43743e+21 1.62089e-05 -0.0326837 0.111523 0.875227 
0.0208125 0.0167344 1.93923 2.34275e+21 1.55793e-05 2.2634 2.72396 -1.00407 
0.0208125 0.0168281 1.96415 2.4669e+21 1.64049e-05 -0.575598 -1.1176 -0.424344 
0.0211875 0.0176719 2.08053 2.3901e+21 1.58942e-05 -1.34036 -0.341884 3.95666 
0.0211875 0.0177656 1.98781 2.48706e+21 1.6539e-05 -3.00875 -0.167128 5.4637 
0.0215625 0.0177656 2.01615 2.4998e+21 1.66237e-05 -2.87863 2.01024 0.677812 
0.0215625 0.0182344 2.04346 2.4132e+21 1.60478e-05 2.5965 2.12155 1.61412 
0.0211875 0.0183281 1.98231 2.34404e+21 1.55879e-05 -0.400901 -1.59883 0.8178 
0.0215625 0.0183281 1.97482 2.49718e+21 1.66063e-05 -1.4525 2.65632 0.518634 
0.0204375 0.0191719 2.02086 2.5266e+21 1.68019e-05 -0.320743 -2.64238 -2.88804 
0.0208125 0.0191719 1.9158 2.50771e+21 1.66763e-05 2.07818 0.142212 0.304004 
0.0204375 0.0192656 2.02152 2.46026e+21 1.63607e-05 2.56173 1.102 -0.944971 
0.0208125 0.0192656 1.91897 2.39447e+21 1.59232e-05 -0.220408 -0.309564 0.54993 
0.0223125 0.0189844 1.9831 2.52056e+21 1.67617e-05 -1.35431 -0.126384 -0.556561 
0.0219375 0.0190781 2.02682 2.52241e+21 1.6774e-05 3.43808 0.738966 -0.569042 
0.0223125 0.0190781 2.06567 2.38003e+21 1.58272e-05 -0.406017 4.4881 2.41586 
0.0234375 0.0187969 2.11616 2.43009e+21 1.61601e-05 2.4509 0.211358 1.30297 
0.0238125 0.0187969 1.98616 2.50716e+21 1.66726e-05 3.5169 -0.747437 -1.01899 
0.0234375 0.0188906 1.95938 2.3725e+21 1.57771e-05 -0.086149 0.470742 1.20404 
0.0211875 0.0193594 2.05043 2.52318e+21 1.67791e-05 0.544219 0.940398 3.63874 
0.0211875 0.0194531 2.02354 2.53894e+21 1.6884e-05 0.280426 -2.345 1.08036 
0.0230625 0.0193594 1.98643 2.52552e+21 1.67947e-05 1.76047 1.34521 0.257516 
0.0204375 0.0195469 1.90752 2.43644e+21 1.62023e-05 0.0417575 1.49259 -1.05544 
0.0196875 0.0197344 1.98164 2.36053e+21 1.56975e-05 -0.227218 -0.756457 5.6108 
0.0200625 0.0197344 2.01143 2.45688e+21 1.63382e-05 0.277945 2.47601 2.47003 
0.0200625 0.0198281 1.9784 2.32197e+21 1.54411e-05 0.789284 3.4164 1.65977 
0.0219375 0.0195469 2.01579 2.40633e+21 1.60021e-05 -2.80196 -1.26433 1.6383 
0.0219375 0.0196406 2.05183 2.40868e+21 1.60177e-05 0.994626 4.45418 2.19729 
0.0211875 0.0201094 2.07977 2.52137e+21 1.67671e-05 1.12243 -2.45265 0.0664388 
0.0215625 0.0201094 1.97805 2.4831e+21 1.65126e-05 1.05186 -0.0888869 -1.02803 
0.0215625 0.0202031 1.972 2.66429e+21 1.77175e-05 -1.38209 -0.890604 -0.996371 
0.0204375 0.0202969 2.10389 2.46685e+21 1.64046e-05 3.03544 2.86582 3.01016 
0.0208125 0.0202969 1.96062 2.58061e+21 1.7161e-05 1.34799 -2.07881 -2.05959 
0.0204375 0.0203906 2.08523 2.53544e+21 1.68607e-05 -1.0273 -0.693068 -3.28903 
0.0219375 0.0203906 2.03107 2.60204e+21 1.73036e-05 0.363438 1.14462 0.839286 
0.0223125 0.0203906 1.97557 2.41777e+21 1.60782e-05 -1.37537 1.41758 0.622982 
0.0238125 0.0204844 1.98189 2.42217e+21 1.61075e-05 -0.248176 2.8248 0.477116 
0.0223125 0.0206719 1.9497 2.444e+21 1.62526e-05 1.14224 -0.304419 -1.43833 
0.0219375 0.0207656 2.01305 2.43951e+21 1.62227e-05 -1.51688 1.36138 0.448849 
0.0230625 0.0206719 2.00334 2.55569e+21 1.69954e-05 -0.319328 5.2578 0.423146 
0.0234375 0.0206719 1.94738 2.51189e+21 1.67041e-05 0.11219 2.97461 3.30282 
0.0196875 0.0211406 1.93329 2.41979e+21 1.60916e-05 4.03469 -0.362977 5.59098 
0.0200625 0.0211406 1.97513 2.56755e+21 1.70742e-05 -3.01465 -2.40579 -2.05585 
0.0204375 0.0210469 1.96643 2.35959e+21 1.56913e-05 -1.47159 -0.907981 0.785203 
0.0208125 0.0210469 1.98995 2.54457e+21 1.69214e-05 -0.429473 1.04632 0.3812 
0.0204375 0.0211406 1.88509 2.37911e+21 1.58211e-05 1.00584 1.95175 -2.45698 
0.0200625 0.0212344 1.99528 2.51571e+21 1.67295e-05 -0.970382 -4.83389 -3.52533 
0.0196875 0.0213281 2.00739 2.51951e+21 1.67547e-05 1.17305 0.381063 0.707204 
0.0200625 0.0213281 1.94654 2.50465e+21 1.66559e-05 1.62892 -1.17577 0.975282 
0.0196875 0.0214219 1.99853 2.41338e+21 1.6049e-05 -1.15812 2.48499 -1.29321 
0.0200625 0.0215156 2.03073 2.51649e+21 1.67346e-05 0.586028 1.63326 3.46008 