ITEM: TIMESTEP
2700000
ITEM: NUMBER OF SURFS
90
ITEM: BOX BOUNDS oo ao pp
0 0.35
0 0.03
-0.1 0.1
ITEM: SURFS id v1x v1y v2x v2y f_collisions[1] f_collisions[2] 
1 0.00079 0.00159 0.00079 0 0 0 
25 0.0581 0.00788 0.0581 0.0035 0 0 
49 0.00714 0.00159 0.00714 0 0 0 
73 0.0807 0.00177 0.08112 0.00177 0 0 
2 0.00318 0.00159 0.00079 0.00159 0 0 
26 0.0581 0.01226 0.0581 0.00788 0.01 0 
50 0.00953 0.00159 0.00714 0.00159 0 0 
74 0.0807 0.00135 0.0807 0.00177 0 0 
3 0.00318 0.00529 0.00318 0.00159 0 0 
27 0.0581 0.01664 0.0581 0.01226 0 0 
51 0.00953 0.00556 0.00953 0.00159 0 0 
75 0.08112 0.00197 0.0807 0.00197 0 0 
4 0.00318 0.009 0.00318 0.00529 0 0 
28 0.0581 0.02102 0.0581 0.01664 0 0 
52 0.00953 0.00953 0.00953 0.00556 0.01 0 
76 0.08112 0.0024 0.08112 0.00197 0 0 
5 0.00318 0.0127 0.00318 0.009 0 0 
29 0.0581 0.0254 0.0581 0.02102 0 0 
53 0.00635 0.00953 0.00953 0.00953 0 0 
77 0.0807 0.0024 0.08112 0.0024 0 0 
6 0.00672 0.0127 0.00318 0.0127 0 0 
30 0.05326 0.0254 0.0581 0.0254 0 0 
54 0.00635 0.00476 0.00635 0.00953 0 0 
78 0.0807 0.00197 0.0807 0.0024 0 0 
7 0.01027 0.0127 0.00672 0.0127 0.01 0 
31 0.04842 0.0254 0.05326 0.0254 0 0 
55 0.00635 0 0.00635 0.00476 0 0 
79 0.08112 0.0026 0.0807 0.0026 0 0 
8 0.01027 0.01714 0.01027 0.0127 0.01 0 
32 0.04358 0.0254 0.04842 0.0254 0 0 
56 0.00714 0 0.00635 0 0 0 
80 0.08112 0.00302 0.08112 0.0026 0 0 
9 0.01027 0.02159 0.01027 0.01714 0 0 
33 0.03873 0.0254 0.04358 0.0254 0 0 
57 0.0801 0.0127 0.0601 0.0127 0.01 0 
81 0.0807 0.00302 0.08112 0.00302 0 0 
10 0.01489 0.02159 0.01027 0.02159 0.04 0 
34 0.03389 0.0254 0.03873 0.0254 0 0 
58 0.0801 0.0045 0.0801 0.0127 0 0 
82 0.0807 0.0026 0.0807 0.00302 0 0 
11 0.01952 0.02159 0.01489 0.02159 0.07 0 
35 0.02905 0.0254 0.03389 0.0254 0 0 
59 0.0807 0.0045 0.0801 0.0045 0 0 
83 0.08112 0.00322 0.0807 0.00322 0 0 
12 0.02414 0.02159 0.01952 0.02159 0.12 0 
36 0.02421 0.0254 0.02905 0.0254 0 0 
60 0.0807 0.02223 0.0807 0.0045 0 0 
84 0.08112 0.00364 0.08112 0.00322 0 0 
13 0.02877 0.02159 0.02414 0.02159 0.07 0 
37 0.01937 0.0254 0.02421 0.0254 0 0 
61 0.0601 0.02223 0.0807 0.02223 0 0 
85 0.0807 0.00364 0.08112 0.00364 0 0 
14 0.03339 0.02159 0.02877 0.02159 0.11 0 
38 0.01452 0.0254 0.01937 0.0254 0 0 
62 0.0601 0.0127 0.0601 0.02223 0 0 
86 0.0807 0.00322 0.0807 0.00364 0 0 
15 0.03802 0.02159 0.03339 0.02159 0.13 0 
39 0.00968 0.0254 0.01452 0.0254 0 0 
63 0.08112 0.0001 0.0807 0.0001 0 0 
87 0.08112 0.00384 0.0807 0.00384 0 0 
16 0.04264 0.02159 0.03802 0.02159 0.08 0 
40 0.00484 0.0254 0.00968 0.0254 0 0 
64 0.08112 0.00052 0.08112 0.0001 0 0 
88 0.08112 0.00427 0.08112 0.00384 0 0 
17 0.04727 0.02159 0.04264 0.02159 0.04 0 
41 0 0.0254 0.00484 0.0254 0 0 
65 0.0807 0.00052 0.08112 0.00052 0 0 
89 0.0807 0.00427 0.08112 0.00427 0 0 
18 0.05189 0.02159 0.04727 0.02159 0.04 0 
42 0 0.02117 0 0.0254 0 0 
66 0.0807 0.0001 0.0807 0.00052 0 0 
90 0.0807 0.00384 0.0807 0.00427 0 0 
19 0.05652 0.02159 0.05189 0.02159 0.02 0 
43 0 0.01693 0 0.02117 0 0 
67 0.08112 0.00072 0.0807 0.00072 0 0 
20 0.05652 0.01707 0.05652 0.02159 0.03 0 
44 0 0.0127 0 0.01693 0 0 
68 0.08112 0.00115 0.08112 0.00072 0 0 
21 0.05652 0.01254 0.05652 0.01707 0.04 0 
45 0 0.00847 0 0.0127 0 0 
69 0.0807 0.00115 0.08112 0.00115 0 0 
22 0.05652 0.00802 0.05652 0.01254 0.05 0 
46 0 0.00423 0 0.00847 0 0 
70 0.0807 0.00072 0.0807 0.00115 0 0 
23 0.05652 0.0035 0.05652 0.00802 0.02 0 
47 0 0 0 0.00423 0 0 
71 0.08112 0.00135 0.0807 0.00135 0 0 
24 0.0581 0.0035 0.05652 0.0035 0 0 
48 0.00079 0 0 0 0 0 
72 0.08112 0.00177 0.08112 0.00135 0 0 
