ITEM: TIMESTEP
200000
ITEM: NUMBER OF CELLS
790
ITEM: BOX BOUNDS oo ao pp
0 0.35
0 0.03
-0.1 0.1
ITEM: CELLS xc yc f_methanolout[1] f_methanolout[2] f_methanolout[3] f_methanolout[4] f_methanolout[5] f_methanolout[6] 
0.02625 0.00075 53.9951 4.68314e+20 2.48675e-05 473.182 67.7578 -0.614871 
0.04375 0.00075 50.2622 2.02422e+20 1.07486e-05 61.475 12.6638 -3.22659 
0.06125 0.00075 12.8364 2.333e+20 1.23882e-05 72.0966 4.8194 4.69109 
0.07875 0.00075 4.85503 4.35795e+19 2.31407e-06 21.3448 0.221 -1.57542 
0.09625 0.00075 -5.67605e-16 1.71544e+18 9.10897e-08 48.8516 6.78596 -27.8267 
0.11375 0.00075 0 0 0 0 0 0 
0.13125 0.00075 0 0 0 0 0 0 
0.14875 0.00075 0 0 0 0 0 0 
0.16625 0.00075 0 0 0 0 0 0 
0.18375 0.00075 0 0 0 0 0 0 
0.20125 0.00075 0 0 0 0 0 0 
0.21875 0.00075 0 0 0 0 0 0 
0.23625 0.00075 0 0 0 0 0 0 
0.25375 0.00075 0 0 0 0 0 0 
0.27125 0.00075 0 0 0 0 0 0 
0.28875 0.00075 0 0 0 0 0 0 
0.30625 0.00075 0 0 0 0 0 0 
0.32375 0.00075 0 0 0 0 0 0 
0.34125 0.00075 0 0 0 0 0 0 
0.02625 0.00225 46.9253 3.56239e+20 1.89163e-05 458.521 129.791 -3.89512 
0.04375 0.00225 60.6574 2.48167e+20 1.31776e-05 82.008 3.71992 -3.39163 
0.07875 0.00225 4.68764 4.77376e+19 2.53487e-06 35.2794 7.5614 1.7771 
0.09625 0.00225 0 0 0 0 0 0 
0.11375 0.00225 0 0 0 0 0 0 
0.13125 0.00225 0 0 0 0 0 0 
0.14875 0.00225 0 0 0 0 0 0 
0.16625 0.00225 0 0 0 0 0 0 
0.18375 0.00225 0 0 0 0 0 0 
0.20125 0.00225 0 0 0 0 0 0 
0.21875 0.00225 0 0 0 0 0 0 
0.23625 0.00225 0 0 0 0 0 0 
0.25375 0.00225 0 0 0 0 0 0 
0.27125 0.00225 0 0 0 0 0 0 
0.28875 0.00225 0 0 0 0 0 0 
0.30625 0.00225 0 0 0 0 0 0 
0.32375 0.00225 0 0 0 0 0 0 
0.34125 0.00225 0 0 0 0 0 0 
0.02625 0.00375 52.8871 2.96771e+20 1.57585e-05 408.4 184.632 0.670638 
0.04375 0.00375 53.0953 2.57316e+20 1.36635e-05 74.0918 13.6208 -2.87558 
0.07875 0.00375 4.98258 5.84478e+19 3.10358e-06 28.1423 8.26631 2.19522 
0.09625 0.00375 0 0 0 0 0 0 
0.11375 0.00375 0 0 0 0 0 0 
0.13125 0.00375 0 0 0 0 0 0 
0.14875 0.00375 0 0 0 0 0 0 
0.16625 0.00375 0 0 0 0 0 0 
0.18375 0.00375 0 0 0 0 0 0 
0.20125 0.00375 0 0 0 0 0 0 
0.21875 0.00375 0 0 0 0 0 0 
0.23625 0.00375 0 0 0 0 0 0 
0.25375 0.00375 0 0 0 0 0 0 
0.27125 0.00375 0 0 0 0 0 0 
0.28875 0.00375 0 0 0 0 0 0 
0.30625 0.00375 0 0 0 0 0 0 
0.32375 0.00375 0 0 0 0 0 0 
0.34125 0.00375 0 0 0 0 0 0 
0.02625 0.00525 59.7497 2.43837e+20 1.29478e-05 381.32 207.794 2.06603 
0.09625 0.00525 0 0 0 0 0 0 
0.11375 0.00525 0 0 0 0 0 0 
0.13125 0.00525 0 0 0 0 0 0 
0.14875 0.00525 0 0 0 0 0 0 
0.16625 0.00525 0 0 0 0 0 0 
0.18375 0.00525 0 0 0 0 0 0 
0.20125 0.00525 0 0 0 0 0 0 
0.21875 0.00525 0 0 0 0 0 0 
0.23625 0.00525 0 0 0 0 0 0 
0.25375 0.00525 0 0 0 0 0 0 
0.27125 0.00525 0 0 0 0 0 0 
0.28875 0.00525 0 0 0 0 0 0 
0.30625 0.00525 0 0 0 0 0 0 
0.32375 0.00525 0 0 0 0 0 0 
0.34125 0.00525 0 0 0 0 0 0 
0.02625 0.00675 61.7868 2.16145e+20 1.14773e-05 358.79 231.262 1.69636 
0.09625 0.00675 0 0 0 0 0 0 
0.11375 0.00675 0 0 0 0 0 0 
0.13125 0.00675 0 0 0 0 0 0 
0.14875 0.00675 0 0 0 0 0 0 
0.16625 0.00675 0 0 0 0 0 0 
0.18375 0.00675 0 0 0 0 0 0 
0.20125 0.00675 0 0 0 0 0 0 
0.21875 0.00675 0 0 0 0 0 0 
0.23625 0.00675 0 0 0 0 0 0 
0.25375 0.00675 0 0 0 0 0 0 
0.27125 0.00675 0 0 0 0 0 0 
0.28875 0.00675 0 0 0 0 0 0 
0.30625 0.00675 0 0 0 0 0 0 
0.32375 0.00675 0 0 0 0 0 0 
0.34125 0.00675 0 0 0 0 0 0 
0.09625 0.00825 0 0 0 0 0 0 
0.11375 0.00825 0 1.55949e+17 8.28089e-09 71.9165 18.2546 4.30779 
0.13125 0.00825 0 0 0 0 0 0 
0.14875 0.00825 0 0 0 0 0 0 
0.16625 0.00825 0 0 0 0 0 0 
0.18375 0.00825 0 0 0 0 0 0 
0.20125 0.00825 0 0 0 0 0 0 
0.21875 0.00825 0 0 0 0 0 0 
0.23625 0.00825 0 0 0 0 0 0 
0.25375 0.00825 0 0 0 0 0 0 
0.27125 0.00825 0 0 0 0 0 0 
0.28875 0.00825 0 0 0 0 0 0 
0.30625 0.00825 0 0 0 0 0 0 
0.32375 0.00825 0 0 0 0 0 0 
0.34125 0.00825 0 0 0 0 0 0 
0.09625 0.00975 5.67605e-16 1.31957e+17 7.0069e-09 24.4067 21.9503 -3.95459 
0.11375 0.00975 0 0 0 0 0 0 
0.13125 0.00975 0 0 0 0 0 0 
0.14875 0.00975 0 0 0 0 0 0 
0.16625 0.00975 0 0 0 0 0 0 
0.18375 0.00975 0 0 0 0 0 0 
0.20125 0.00975 0 0 0 0 0 0 
0.21875 0.00975 0 0 0 0 0 0 
0.23625 0.00975 0 0 0 0 0 0 
0.25375 0.00975 0 0 0 0 0 0 
0.27125 0.00975 0 0 0 0 0 0 
0.28875 0.00975 0 0 0 0 0 0 
0.30625 0.00975 0 0 0 0 0 0 
0.32375 0.00975 0 0 0 0 0 0 
0.34125 0.00975 0 0 0 0 0 0 
0.09625 0.01125 0.441937 3.43088e+17 1.82179e-08 57.8146 46.8373 -2.41687 
0.11375 0.01125 0 0 0 0 0 0 
0.13125 0.01125 0 0 0 0 0 0 
0.14875 0.01125 0 0 0 0 0 0 
0.16625 0.01125 0 0 0 0 0 0 
0.18375 0.01125 0 0 0 0 0 0 
0.20125 0.01125 0 0 0 0 0 0 
0.21875 0.01125 0 0 0 0 0 0 
0.23625 0.01125 0 0 0 0 0 0 
0.25375 0.01125 0 0 0 0 0 0 
0.27125 0.01125 0 0 0 0 0 0 
0.28875 0.01125 0 0 0 0 0 0 
0.30625 0.01125 0 0 0 0 0 0 
0.32375 0.01125 0 0 0 0 0 0 
0.34125 0.01125 0 0 0 0 0 0 
0.09625 0.01275 -1.13521e-15 1.00908e+17 5.35822e-09 52.9186 38.4851 -11.1357 
0.11375 0.01275 0 0 0 0 0 0 
0.13125 0.01275 -1.13521e-15 1.00908e+17 5.35822e-09 71.9165 18.5153 2.99512 
0.14875 0.01275 0 0 0 0 0 0 
0.16625 0.01275 0 0 0 0 0 0 
0.18375 0.01275 0 0 0 0 0 0 
0.20125 0.01275 0 0 0 0 0 0 
0.21875 0.01275 0 0 0 0 0 0 
0.23625 0.01275 0 0 0 0 0 0 
0.25375 0.01275 0 0 0 0 0 0 
0.27125 0.01275 0 0 0 0 0 0 
0.28875 0.01275 0 0 0 0 0 0 
0.30625 0.01275 0 0 0 0 0 0 
0.32375 0.01275 0 0 0 0 0 0 
0.34125 0.01275 0 0 0 0 0 0 
0.00875 0.01425 65.5706 1.07519e+20 5.70927e-06 96.8065 347.74 3.49905 
0.07875 0.01425 -2.83802e-16 2.32354e+17 1.2338e-08 12.6301 30.9158 13.1807 
0.09625 0.01425 0 9.02862e+16 4.7942e-09 24.4067 22.1332 -2.75219 
0.11375 0.01425 0 0 0 0 0 0 
0.13125 0.01425 0 0 0 0 0 0 
0.14875 0.01425 0 0 0 0 0 0 
0.16625 0.01425 0 0 0 0 0 0 
0.18375 0.01425 0 0 0 0 0 0 
0.20125 0.01425 0 0 0 0 0 0 
0.21875 0.01425 0 0 0 0 0 0 
0.23625 0.01425 0 0 0 0 0 0 
0.25375 0.01425 0 0 0 0 0 0 
0.27125 0.01425 0 0 0 0 0 0 
0.28875 0.01425 0 0 0 0 0 0 
0.30625 0.01425 0 0 0 0 0 0 
0.32375 0.01425 0 0 0 0 0 0 
0.34125 0.01425 0 0 0 0 0 0 
0.07875 0.01575 0 2.10225e+17 1.1163e-08 15.0109 101.015 15.8002 
0.09625 0.01575 0 8.16875e+16 4.33761e-09 22.5757 20.5882 -5.20727 
0.11375 0.01575 0 0 0 0 0 0 
0.13125 0.01575 0 0 0 0 0 0 
0.14875 0.01575 0 8.16875e+16 4.33761e-09 71.9165 18.6156 2.29084 
0.16625 0.01575 0 0 0 0 0 0 
0.18375 0.01575 0 0 0 0 0 0 
0.20125 0.01575 0 0 0 0 0 0 
0.21875 0.01575 0 0 0 0 0 0 
0.23625 0.01575 0 0 0 0 0 0 
0.25375 0.01575 0 0 0 0 0 0 
0.27125 0.01575 0 0 0 0 0 0 
0.28875 0.01575 0 0 0 0 0 0 
0.30625 0.01575 0 0 0 0 0 0 
0.32375 0.01575 0 0 0 0 0 0 
0.34125 0.01575 0 0 0 0 0 0 
0.07875 0.01725 0 0 0 0 0 0 
0.09625 0.01725 0 0 0 0 0 0 
0.11375 0.01725 0 0 0 0 0 0 
0.13125 0.01725 0 0 0 0 0 0 
0.14875 0.01725 0 0 0 0 0 0 
0.16625 0.01725 0 0 0 0 0 0 
0.18375 0.01725 0 0 0 0 0 0 
0.20125 0.01725 0 0 0 0 0 0 
0.21875 0.01725 0 0 0 0 0 0 
0.23625 0.01725 0 0 0 0 0 0 
0.25375 0.01725 0 0 0 0 0 0 
0.27125 0.01725 0 0 0 0 0 0 
0.28875 0.01725 0 0 0 0 0 0 
0.30625 0.01725 0 0 0 0 0 0 
0.32375 0.01725 0 0 0 0 0 0 
0.34125 0.01725 0 0 0 0 0 0 
0.07875 0.01875 0 0 0 0 0 0 
0.09625 0.01875 0.00292801 1.37235e+17 7.28718e-09 23.4912 21.5216 -3.09802 
0.11375 0.01875 0 6.86175e+16 3.64359e-09 76.6482 36.0803 -5.37203 
0.13125 0.01875 0 0 0 0 0 0 
0.14875 0.01875 0 0 0 0 0 0 
0.16625 0.01875 0 0 0 0 0 0 
0.18375 0.01875 0 0 0 0 0 0 
0.20125 0.01875 0 0 0 0 0 0 
0.21875 0.01875 0 0 0 0 0 0 
0.23625 0.01875 0 0 0 0 0 0 
0.25375 0.01875 0 0 0 0 0 0 
0.27125 0.01875 0 0 0 0 0 0 
0.28875 0.01875 0 0 0 0 0 0 
0.30625 0.01875 0 0 0 0 0 0 
0.32375 0.01875 0 0 0 0 0 0 
0.34125 0.01875 0 0 0 0 0 0 
0.07875 0.02025 0 0 0 0 0 0 
0.09625 0.02025 0.0799264 1.27069e+17 6.74739e-09 46.7314 42.2331 -2.68711 
0.11375 0.02025 0 0 0 0 0 0 
0.13125 0.02025 0 0 0 0 0 0 
0.14875 0.02025 0 0 0 0 0 0 
0.16625 0.02025 0 6.35347e+16 3.37369e-09 71.9165 18.6642 1.85339 
0.18375 0.02025 0 0 0 0 0 0 
0.20125 0.02025 0 0 0 0 0 0 
0.21875 0.02025 0 0 0 0 0 0 
0.23625 0.02025 0 0 0 0 0 0 
0.25375 0.02025 0 0 0 0 0 0 
0.27125 0.02025 0 0 0 0 0 0 
0.28875 0.02025 0 0 0 0 0 0 
0.30625 0.02025 0 0 0 0 0 0 
0.32375 0.02025 0 0 0 0 0 0 
0.34125 0.02025 0 0 0 0 0 0 
0.07875 0.02175 5.67605e-16 1.17896e+17 6.26026e-09 12.6301 32.3181 9.22283 
0.09625 0.02175 0 0 0 0 0 0 
0.11375 0.02175 0 0 0 0 0 0 
0.13125 0.02175 0 0 0 0 0 0 
0.14875 0.02175 0 0 0 0 0 0 
0.16625 0.02175 0 0 0 0 0 0 
0.18375 0.02175 0 0 0 0 0 0 
0.20125 0.02175 0 0 0 0 0 0 
0.21875 0.02175 0 0 0 0 0 0 
0.23625 0.02175 0 0 0 0 0 0 
0.25375 0.02175 0 0 0 0 0 0 
0.27125 0.02175 0 0 0 0 0 0 
0.28875 0.02175 0 0 0 0 0 0 
0.30625 0.02175 0 0 0 0 0 0 
0.32375 0.02175 0 0 0 0 0 0 
0.34125 0.02175 0 0 0 0 0 0 
0.00875 0.02325 0 0 0 0 0 0 
0.02625 0.02325 0 0 0 0 0 0 
0.04375 0.02325 0 0 0 0 0 0 
0.06125 0.02325 1.095 2.44132e+17 1.29634e-08 7.09815 15.2792 -7.54766 
0.07875 0.02325 0 0 0 0 0 0 
0.09625 0.02325 0.732578 1.6601e+17 8.81514e-09 34.4112 34.463 -1.85241 
0.11375 0.02325 0 0 0 0 0 0 
0.13125 0.02325 0 0 0 0 0 0 
0.14875 0.02325 0 0 0 0 0 0 
0.16625 0.02325 0 5.53367e+16 2.93838e-09 71.9165 18.6914 1.55573 
0.18375 0.02325 0 0 0 0 0 0 
0.20125 0.02325 0 0 0 0 0 0 
0.21875 0.02325 0 0 0 0 0 0 
0.23625 0.02325 0 0 0 0 0 0 
0.25375 0.02325 0 0 0 0 0 0 
0.27125 0.02325 0 0 0 0 0 0 
0.28875 0.02325 0 0 0 0 0 0 
0.30625 0.02325 0 0 0 0 0 0 
0.32375 0.02325 0 0 0 0 0 0 
0.34125 0.02325 0 0 0 0 0 0 
0.00875 0.02475 0 0 0 0 0 0 
0.02625 0.02475 0 0 0 0 0 0 
0.04375 0.02475 0 0 0 0 0 0 
0.06125 0.02475 1.41901e-16 7.40565e+16 3.9324e-09 18.8608 13.0874 -10.7519 
0.07875 0.02475 0 0 0 0 0 0 
0.09625 0.02475 4.54084e-15 5.1983e+16 2.7603e-09 94.8811 104.212 5.66269 
0.11375 0.02475 0 0 0 0 0 0 
0.13125 0.02475 0 0 0 0 0 0 
0.14875 0.02475 0 0 0 0 0 0 
0.16625 0.02475 0 0 0 0 0 0 
0.18375 0.02475 0 0 0 0 0 0 
0.20125 0.02475 0 0 0 0 0 0 
0.21875 0.02475 0 0 0 0 0 0 
0.23625 0.02475 0 0 0 0 0 0 
0.25375 0.02475 0 0 0 0 0 0 
0.27125 0.02475 0 0 0 0 0 0 
0.28875 0.02475 0 0 0 0 0 0 
0.30625 0.02475 0 0 0 0 0 0 
0.32375 0.02475 0 0 0 0 0 0 
0.34125 0.02475 0 0 0 0 0 0 
0.00875 0.02625 0 0 0 0 0 0 
0.02625 0.02625 0 0 0 0 0 0 
0.04375 0.02625 0 0 0 0 0 0 
0.06125 0.02625 0.236973 9.8025e+16 5.20513e-09 1.80805 44.9785 8.0283 
0.07875 0.02625 0 0 0 0 0 0 
0.09625 0.02625 0 0 0 0 0 0 
0.11375 0.02625 0 0 0 0 0 0 
0.13125 0.02625 0 4.90125e+16 2.60256e-09 76.6482 36.273 -3.86222 
0.14875 0.02625 0 0 0 0 0 0 
0.16625 0.02625 0 0 0 0 0 0 
0.18375 0.02625 0 0 0 0 0 0 
0.20125 0.02625 0 0 0 0 0 0 
0.21875 0.02625 0 0 0 0 0 0 
0.23625 0.02625 0 0 0 0 0 0 
0.25375 0.02625 0 0 0 0 0 0 
0.27125 0.02625 0 0 0 0 0 0 
0.28875 0.02625 0 0 0 0 0 0 
0.30625 0.02625 0 0 0 0 0 0 
0.32375 0.02625 0 0 0 0 0 0 
0.34125 0.02625 0 0 0 0 0 0 
0.00875 0.02775 0 0 0 0 0 0 
0.02625 0.02775 0 0 0 0 0 0 
0.04375 0.02775 0 0 0 0 0 0 
0.06125 0.02775 0.344501 2.31816e+17 1.23094e-08 3.50827 33.135 4.64613 
0.07875 0.02775 0 0 0 0 0 0 
0.09625 0.02775 0 4.63632e+16 2.46188e-09 12.6301 32.8611 7.0476 
0.11375 0.02775 0.362549 9.27264e+16 4.92377e-09 38.6626 31.0146 -3.13129 
0.13125 0.02775 0 0 0 0 0 0 
0.14875 0.02775 0 0 0 0 0 0 
0.16625 0.02775 0 0 0 0 0 0 
0.18375 0.02775 0 4.63632e+16 2.46188e-09 71.9165 18.7081 1.34023 
0.20125 0.02775 0 0 0 0 0 0 
0.21875 0.02775 0 0 0 0 0 0 
0.23625 0.02775 0 0 0 0 0 0 
0.25375 0.02775 0 0 0 0 0 0 
0.27125 0.02775 0 0 0 0 0 0 
0.28875 0.02775 0 0 0 0 0 0 
0.30625 0.02775 0 0 0 0 0 0 
0.32375 0.02775 0 0 0 0 0 0 
0.34125 0.02775 0 0 0 0 0 0 
0.00875 0.02925 0 0 0 0 0 0 
0.02625 0.02925 0 0 0 0 0 0 
0.04375 0.02925 0 0 0 0 0 0 
0.06125 0.02925 0 0 0 0 0 0 
0.07875 0.02925 0 0 0 0 0 0 
0.09625 0.02925 0 0 0 0 0 0 
0.11375 0.02925 0 0 0 0 0 0 
0.13125 0.02925 0 0 0 0 0 0 
0.14875 0.02925 0 0 0 0 0 0 
0.16625 0.02925 0 0 0 0 0 0 
0.18375 0.02925 0 0 0 0 0 0 
0.20125 0.02925 0 0 0 0 0 0 
0.21875 0.02925 0 0 0 0 0 0 
0.23625 0.02925 0 0 0 0 0 0 
0.25375 0.02925 0 0 0 0 0 0 
0.27125 0.02925 0 0 0 0 0 0 
0.28875 0.02925 0 0 0 0 0 0 
0.30625 0.02925 0 0 0 0 0 0 
0.32375 0.02925 0 0 0 0 0 0 
0.34125 0.02925 0 0 0 0 0 0 
0.07875 0.00675 3.25083 9.11503e+19 4.84008e-06 7.13283 5.30027 -0.473863 
0.07875 0.00675 -1.41901e-16 4.90525e+17 2.60469e-08 2.51898 25.066 -1.53989 
0.07875 0.00825 3.0465 9.10602e+19 4.8353e-06 6.19558 8.04907 0.192036 
0.07875 0.00825 0 0 0 0 0 0 
0.07875 0.01275 2.08936 4.40945e+19 2.34142e-06 -1.96859 4.41913 2.05545 
0.07875 0.01275 0 0 0 0 0 0 
0.004375 0.002625 0 0 0 0 0 0 
0.013125 0.002625 101.423 2.31595e+21 0.000122977 268.097 297.262 0.0741038 
0.013125 0.003375 89.1603 1.48322e+21 7.8759e-05 265.59 335.203 -1.9806 
0.013125 0.004125 76.8988 1.05329e+21 5.59297e-05 249.029 350.108 1.63517 
0.013125 0.004875 73.5647 8.61113e+20 4.57251e-05 256.212 370.848 -1.68628 
0.013125 0.005625 65.9384 6.66947e+20 3.54149e-05 242.129 382.802 2.42082 
0.013125 0.006375 61.6198 5.29103e+20 2.80954e-05 225.516 389.999 1.39921 
0.013125 0.007125 63.1088 4.2345e+20 2.24852e-05 223.271 388.723 -4.69469 
0.013125 0.007875 52.5414 3.42944e+20 1.82103e-05 224.426 397.051 -0.665082 
0.013125 0.008625 50.7539 2.95436e+20 1.56876e-05 190.634 394.557 -5.22658 
0.039375 0.007875 74.9387 1.97357e+20 1.04797e-05 117.201 38.593 -2.36368 
0.039375 0.008625 76.2845 1.86759e+20 9.9169e-06 123.532 47.4974 1.9113 
0.048125 0.008625 29.4523 4.19462e+20 2.22734e-05 33.7727 1.69375 -1.48017 
0.013125 0.009375 55.5547 2.44105e+20 1.2962e-05 182.214 406.232 -2.54406 
0.013125 0.010125 52.0387 2.13477e+20 1.13356e-05 166.836 400.959 2.29058 
0.039375 0.009375 65.56 1.95423e+20 1.03769e-05 101.184 43.5172 11.0033 
0.048125 0.009375 30.2573 4.43544e+20 2.35522e-05 30.704 -0.154682 3.36641 
0.039375 0.010125 71.2282 2.1551e+20 1.14436e-05 104.729 38.9003 -7.63512 
0.013125 0.010875 52.6766 1.60423e+20 8.51846e-06 163.242 394.024 4.12128 
0.013125 0.011625 61.5257 1.50516e+20 7.99239e-06 131.729 394.04 1.41788 
0.039375 0.010875 72.5998 2.37085e+20 1.25892e-05 109.702 51.5226 -0.656008 
0.039375 0.011625 62.4705 2.29758e+20 1.22001e-05 86.6843 45.1201 -7.17415 
0.056875 0.010875 9.34049 8.13722e+20 4.32086e-05 5.81339 3.0514 3.31709 
0.056875 0.010875 2.37512 4.20644e+19 2.23362e-06 -8.58438 16.7691 2.18266 
0.065625 0.010875 3.00365 7.76088e+19 4.12103e-06 -5.00691 9.5 -0.0525841 
0.065625 0.011625 2.63701 6.68467e+19 3.54956e-06 -2.86053 1.55565 0.938698 
0.013125 0.012375 76.6049 1.49832e+20 7.95607e-06 111.001 342.01 -2.43648 
0.004375 0.013125 0 0 0 0 0 0 
0.013125 0.013125 52.2089 1.37615e+20 7.30734e-06 125.889 380.484 -2.6263 
0.021875 0.012375 58.5465 1.88802e+20 1.00254e-05 268.274 322.968 0.224859 
0.030625 0.012375 90.3762 1.46384e+20 7.77299e-06 197.7 142.012 -4.24087 
0.021875 0.013125 58.1419 1.76053e+20 9.34841e-06 253.258 317.835 -0.80508 
0.030625 0.013125 82.6625 1.39588e+20 7.4121e-06 192.993 146.766 8.21743 
0.039375 0.012375 67.6536 2.23735e+20 1.18803e-05 85.074 46.9395 0.462558 
0.039375 0.013125 57.7683 2.25458e+20 1.19718e-05 78.5016 42.2245 -0.37227 
0.065625 0.012375 2.32416 6.42917e+19 3.41389e-06 -2.9154 6.87257 0.77438 
0.065625 0.013125 0 0 0 0 0 0 
0.021875 0.013875 57.7743 1.76922e+20 9.39455e-06 238.82 321.848 3.02905 
0.030625 0.013875 85.2144 1.49104e+20 7.91742e-06 174.296 138.41 -8.38705 
0.021875 0.014625 61.4402 1.71016e+20 9.08095e-06 231.642 323.754 1.61294 
0.030625 0.014625 82.3446 1.51662e+20 8.05327e-06 168.018 134.858 -0.232206 
0.039375 0.013875 57.8238 2.7039e+20 1.43577e-05 67.8228 42.9361 -3.11346 
0.039375 0.014625 52.7117 2.52301e+20 1.33972e-05 62.5241 39.0882 2.25896 
0.065625 0.013875 0 0 0 0 0 0 
0.065625 0.014625 0 0 0 0 0 0 
0.004375 0.015375 0 0 0 0 0 0 
0.013125 0.015375 64.0197 1.17071e+20 6.21646e-06 83.2293 314.946 -5.17468 
0.004375 0.016125 0 0 0 0 0 0 
0.013125 0.016125 71.7878 1.00424e+20 5.33254e-06 54.5184 276.044 1.30113 
0.021875 0.015375 68.1302 1.64013e+20 8.70907e-06 216.602 304.104 0.0796138 
0.030625 0.015375 77.6247 1.5464e+20 8.21141e-06 144.685 116.998 -3.31536 
0.021875 0.016125 77.1827 1.64682e+20 8.74462e-06 192.471 282.312 2.86501 
0.030625 0.016125 79.6215 1.62767e+20 8.64293e-06 144.505 129.648 9.69188 
0.039375 0.015375 56.0447 2.65433e+20 1.40945e-05 55.5585 42.4403 0.00733161 
0.065625 0.015375 0 0 0 0 0 0 
0.065625 0.016125 0 0 0 0 0 0 
0.004375 0.016875 0 0 0 0 0 0 
0.013125 0.016875 80.9986 9.74375e+19 5.17393e-06 53.3217 264.838 0.440802 
0.004375 0.017625 0 0 0 0 0 0 
0.013125 0.017625 73.445 1.07073e+20 5.68557e-06 35.313 187.547 3.62051 
0.021875 0.016875 74.0986 1.65597e+20 8.7932e-06 172.968 252.631 -4.06257 
0.030625 0.016875 78.4826 1.8115e+20 9.61908e-06 133.573 118.696 3.59893 
0.021875 0.017625 80.6201 1.6585e+20 8.80663e-06 151.427 238.567 -0.564541 
0.030625 0.017625 69.6726 2.04101e+20 1.08377e-05 122.978 105.799 7.30146 
0.065625 0.016875 0 0 0 0 0 0 
0.065625 0.017625 0 0 0 0 0 0 
0.004375 0.018375 0 0 0 0 0 0 
0.013125 0.018375 71.5301 1.30497e+20 6.92937e-06 30.8402 165.773 -2.53119 
0.004375 0.019125 0 0 0 0 0 0 
0.021875 0.018375 83.6709 1.89608e+20 1.00682e-05 129.174 204.298 -2.63872 
0.030625 0.018375 68.5187 2.24057e+20 1.18974e-05 117.251 95.8559 -3.33752 
0.030625 0.019125 57.5639 2.8039e+20 1.48887e-05 100.489 79.9636 0.546422 
0.065625 0.018375 0 0 0 0 0 0 
0.065625 0.019125 0 0 0 0 0 0 
0.004375 0.019875 0 0 0 0 0 0 
0.004375 0.020625 0 0 0 0 0 0 
0.065625 0.019875 0 0 0 0 0 0 
0.065625 0.020625 0 0 0 0 0 0 
0.004375 0.021375 0 0 0 0 0 0 
0.004375 0.022125 0 0 0 0 0 0 
0.013125 0.022125 0 0 0 0 0 0 
0.021875 0.022125 0 0 0 0 0 0 
0.030625 0.022125 0 0 0 0 0 0 
0.039375 0.022125 0 0 0 0 0 0 
0.048125 0.022125 0 0 0 0 0 0 
0.065625 0.021375 0 0 0 0 0 0 
0.056875 0.022125 0.440131 1.68309e+18 8.93719e-08 22.7452 5.76506 12.4348 
0.065625 0.022125 0 0 0 0 0 0 
0.056875 0.001875 17.0174 3.32109e+20 1.7635e-05 66.7964 3.6898 3.13873 
0.065625 0.001875 8.6641 1.29001e+20 6.84995e-06 82.5966 20.9137 6.23286 
0.056875 0.002625 17.0133 3.64653e+20 1.93631e-05 60.5791 -0.930071 -6.26072 
0.065625 0.002625 7.07597 8.43015e+19 4.47641e-06 87.8196 16.6717 -2.46256 
0.056875 0.003375 12.6096 3.6191e+20 1.92174e-05 43.7899 1.16561 4.52146 
0.065625 0.003375 6.55981 7.77665e+19 4.1294e-06 43.5777 12.5189 -1.77794 
0.056875 0.004125 13.1594 6.70735e+20 3.5616e-05 22.4688 -2.00853 1.56511 
0.056875 0.004125 9.69451 4.85174e+19 2.57628e-06 48.5066 46.6433 -2.8125 
0.065625 0.004125 6.14307 8.48362e+19 4.5048e-06 48.9596 26.1576 7.52929 
0.039375 0.004875 75.0263 1.58348e+20 8.40828e-06 151.05 22.9353 -24.8446 
0.048125 0.004875 35.5089 3.7898e+20 2.01238e-05 37.9307 -7.27992 2.65815 
0.039375 0.005625 78.136 1.8481e+20 9.8134e-06 148.115 34.7599 7.03881 
0.048125 0.005625 36.4251 3.56811e+20 1.89467e-05 42.2449 6.21193 -2.19658 
0.056875 0.004875 14.8519 6.57158e+20 3.48951e-05 19.7688 -3.25031 4.70128 
0.056875 0.004875 8.09129 6.15798e+19 3.26989e-06 26.4095 45.4414 -15.3604 
0.065625 0.004875 5.87173 8.33967e+19 4.42836e-06 34.5808 29.9751 -3.82718 
0.056875 0.005625 12.208 7.14908e+20 3.79616e-05 17.0746 -7.84017 -5.21982 
0.056875 0.005625 5.94408 4.5745e+19 2.42906e-06 19.157 21.6713 -9.29553 
0.065625 0.005625 4.85669 6.77026e+19 3.59501e-06 22.5785 11.489 -2.57502 
0.074375 0.004875 3.98559 6.96732e+19 3.69964e-06 14.9725 16.1508 3.27617 
0.083125 0.004875 3.18006 8.89486e+19 4.72317e-06 18.9835 11.1865 -5.39052 
0.083125 0.004875 0.191522 2.71676e+18 1.4426e-07 64.7834 29.3201 -24.4865 
0.074375 0.005625 3.47134 9.78943e+19 5.19819e-06 14.4574 6.46692 1.98639 
0.083125 0.005625 2.50309 6.5229e+19 3.46366e-06 9.8723 4.37067 -1.07576 
0.083125 0.005625 0 1.17726e+18 6.25126e-08 24.4067 21.1997 -6.92998 
0.039375 0.006375 72.6978 1.94551e+20 1.03306e-05 127.775 45.5426 -9.66175 
0.048125 0.006375 35.3279 3.90716e+20 2.0747e-05 37.5559 -0.225648 7.29823 
0.039375 0.007125 82.9636 2.0513e+20 1.08924e-05 104.622 35.0084 8.36205 
0.048125 0.007125 33.2267 3.79924e+20 2.0174e-05 32.1222 4.60674 5.58751 
0.056875 0.006375 12.9264 6.72972e+20 3.57348e-05 19.5869 2.77921 -0.789041 
0.056875 0.006375 5.21026 4.03632e+19 2.14329e-06 14.2654 31.5957 -0.407496 
0.065625 0.006375 5.21419 6.78102e+19 3.60072e-06 20.478 19.0747 3.38071 
0.056875 0.007125 12.6173 7.49914e+20 3.98205e-05 17.8246 -2.05022 0.709581 
0.056875 0.007125 3.09053 4.41399e+19 2.34383e-06 -5.36239 19.4619 -5.25683 
0.065625 0.007125 3.75541 7.87296e+19 4.18054e-06 9.9688 9.66235 -2.84297 
0.021875 0.007875 56.0745 2.67935e+20 1.42273e-05 327.969 296.829 -5.23468 
0.030625 0.007875 76.5954 1.47038e+20 7.80769e-06 326.645 166.166 3.51339 
0.021875 0.008625 53.8183 2.30316e+20 1.22298e-05 339.633 318.369 4.49958 
0.030625 0.008625 87.3737 1.37832e+20 7.31886e-06 265.523 141.538 2.25216 
0.056875 0.007875 12.0528 7.08365e+20 3.76142e-05 9.6017 0.429316 1.51352 
0.056875 0.007875 4.65865 6.89806e+19 3.66287e-06 -0.620201 24.7532 4.20271 
0.065625 0.007875 4.37981 8.29945e+19 4.40701e-06 8.22741 9.37186 4.25487 
0.056875 0.008625 11.1399 7.19497e+20 3.82053e-05 15.5724 2.44844 -0.0177873 
0.056875 0.008625 3.64833 5.46951e+19 2.90431e-06 -5.68588 26.168 4.85931 
0.065625 0.008625 4.32808 7.33909e+19 3.89706e-06 1.74709 8.40983 1.04176 
0.021875 0.009375 51.1367 2.19027e+20 1.16303e-05 304.58 311.82 -3.13359 
0.030625 0.009375 78.333 1.39431e+20 7.40377e-06 269.418 163.243 9.2352 
0.021875 0.010125 52.8469 2.31775e+20 1.23072e-05 309.942 324.233 -2.50353 
0.030625 0.010125 83.9077 1.39268e+20 7.39514e-06 243.51 145.619 -2.17442 
0.056875 0.009375 10.1708 7.64693e+20 4.06052e-05 11.1494 -2.08995 1.42667 
0.056875 0.009375 4.14044 5.18443e+19 2.75293e-06 -0.96894 12.6098 0.980461 
0.065625 0.009375 3.22693 7.74005e+19 4.10997e-06 -2.01997 6.25499 -1.1623 
0.056875 0.010125 9.93075 7.82173e+20 4.15334e-05 10.1842 2.75534 1.0416 
0.056875 0.010125 2.9808 4.65921e+19 2.47404e-06 -7.63366 17.2705 0.463637 
0.065625 0.010125 3.53386 8.43741e+19 4.48027e-06 -1.48301 8.03861 -0.48069 
0.074375 0.009375 2.7096 7.19111e+19 3.81848e-06 1.64354 2.75641 1.54526 
0.083125 0.009375 2.05831 2.49056e+19 1.32249e-06 1.90764 -6.11702 5.02108 
0.083125 0.009375 0 7.06357e+17 3.75075e-08 12.6301 25.7024 21.6542 
0.074375 0.010125 2.66076 5.54023e+19 2.94186e-06 1.09287 0.274563 -0.285839 
0.083125 0.010125 1.69412 2.63551e+19 1.39946e-06 2.66224 6.59889 12.6044 
0.083125 0.010125 0 0 0 0 0 0 
0.021875 0.010875 51.9825 2.07272e+20 1.10062e-05 281.733 328.152 -0.712904 
0.030625 0.010875 86.1472 1.23512e+20 6.55846e-06 218.613 162.166 -1.50253 
0.021875 0.011625 57.1707 2.08066e+20 1.10483e-05 273.158 320.27 3.34181 
0.030625 0.011625 91.6378 1.32365e+20 7.0286e-06 208.573 153.562 -1.91729 
0.074375 0.010875 2.74195 5.11082e+19 2.71385e-06 1.50433 3.844 2.8445 
0.083125 0.010875 2.43122 3.37391e+19 1.79155e-06 10.3248 10.9574 -7.34496 
0.083125 0.010875 0 6.08928e+17 3.23341e-08 22.5757 20.0073 -7.12014 
0.074375 0.011625 2.48955 5.35659e+19 2.84435e-06 4.34226 5.62223 -0.213188 
0.083125 0.011625 3.03515 4.01703e+19 2.13305e-06 -3.47962 7.77155 -3.40084 
0.083125 0.011625 0 0 0 0 0 0 
0.0021875 0.0001875 0 0 0 0 0 0 
0.0065625 0.0001875 248.106 1.77511e+23 0.00942581 28.0061 -13.5758 11.3199 
0.0065625 0.0001875 0 0 0 0 0 0 
0.0021875 0.0005625 0 0 0 0 0 0 
0.0065625 0.0005625 262.128 1.83079e+23 0.00972152 34.7281 -15.2453 14.622 
0.0065625 0.0005625 0 0 0 0 0 0 
0.0109375 0.0001875 172.508 3.06309e+22 0.0016265 299.919 14.5713 -11.789 
0.0153125 0.0001875 99.0155 6.58728e+21 0.000349785 412.514 5.30531 18.0933 
0.0109375 0.0005625 172.87 3.49858e+22 0.00185774 304.345 14.4045 10.2657 
0.0153125 0.0005625 96.6271 6.77026e+21 0.000359501 422.033 37.1149 -17.4322 
0.0021875 0.0009375 0 0 0 0 0 0 
0.0065625 0.0009375 244.628 1.78286e+23 0.009467 51.1856 -18.9043 -1.93009 
0.0065625 0.0009375 0 0 0 0 0 0 
0.0021875 0.0013125 0 0 0 0 0 0 
0.0065625 0.0013125 240.131 1.85949e+23 0.0098739 93.3058 -30.7099 -3.40896 
0.0065625 0.0013125 0 0 0 0 0 0 
0.0109375 0.0009375 176.87 3.34414e+22 0.00177574 293.176 20.6352 1.32873 
0.0153125 0.0009375 100.59 6.43358e+21 0.000341623 428.568 84.875 3.24204 
0.0109375 0.0013125 183.892 2.9235e+22 0.00155238 257.699 51.1927 -3.3059 
0.0153125 0.0013125 90.0266 4.64246e+21 0.000246515 408.604 127.726 1.7941 
0.0021875 0.0016875 0 0 0 0 0 0 
0.0065625 0.0016875 230.424 2.15727e+23 0.0114551 109.172 -6.7221 4.77113 
0.0065625 0.0016875 0 0 0 0 0 0 
0.0021875 0.0020625 0 0 0 0 0 0 
0.0065625 0.0020625 0 0 0 0 0 0 
0.0109375 0.0016875 200.017 1.37589e+22 0.000730598 219.532 130.048 12.3022 
0.0153125 0.0016875 79.4959 2.85449e+21 0.000151573 411.371 181.803 2.79345 
0.0109375 0.0020625 140.101 5.01639e+21 0.00026637 231.392 262.584 9.83778 
0.0153125 0.0020625 73.1084 2.37541e+21 0.000126134 395.949 236.427 7.90936 
0.0021875 0.0031875 0 0 0 0 0 0 
0.0065625 0.0031875 0 0 0 0 0 0 
0.0021875 0.0035625 0 0 0 0 0 0 
0.0065625 0.0035625 0 0 0 0 0 0 
0.0021875 0.0039375 0 0 0 0 0 0 
0.0065625 0.0039375 0 0 0 0 0 0 
0.0021875 0.0043125 0 0 0 0 0 0 
0.0065625 0.0043125 0 0 0 0 0 0 
0.0021875 0.0046875 0 0 0 0 0 0 
0.0065625 0.0046875 0 0 0 0 0 0 
0.0021875 0.0050625 0 0 0 0 0 0 
0.0065625 0.0050625 0 0 0 0 0 0 
0.0021875 0.0054375 0 0 0 0 0 0 
0.0065625 0.0054375 0 0 0 0 0 0 
0.0021875 0.0058125 0 0 0 0 0 0 
0.0065625 0.0058125 0 0 0 0 0 0 
0.0021875 0.0061875 0 0 0 0 0 0 
0.0065625 0.0061875 0 0 0 0 0 0 
0.0021875 0.0065625 0 0 0 0 0 0 
0.0065625 0.0065625 0 0 0 0 0 0 
0.0021875 0.0069375 0 0 0 0 0 0 
0.0065625 0.0069375 0 0 0 0 0 0 
0.0021875 0.0073125 0 0 0 0 0 0 
0.0065625 0.0073125 0 0 0 0 0 0 
0.0021875 0.0076875 0 0 0 0 0 0 
0.0065625 0.0076875 0 0 0 0 0 0 
0.0021875 0.0080625 0 0 0 0 0 0 
0.0065625 0.0080625 0 0 0 0 0 0 
0.0021875 0.0084375 0 0 0 0 0 0 
0.0065625 0.0084375 0 0 0 0 0 0 
0.0021875 0.0088125 0 0 0 0 0 0 
0.0065625 0.0088125 0 0 0 0 0 0 
0.0459375 0.0076875 40.0614 3.50786e+20 1.86267e-05 42.2138 8.81456 7.52543 
0.0503125 0.0076875 26.125 4.44508e+20 2.36034e-05 22.7959 0.163363 5.03022 
0.0459375 0.0080625 39.4419 3.57449e+20 1.89806e-05 50.0085 4.93003 -8.80125 
0.0503125 0.0080625 23.0231 4.46812e+20 2.37257e-05 18.4139 0.966686 2.13289 
0.0021875 0.0091875 0 0 0 0 0 0 
0.0065625 0.0091875 0 0 0 0 0 0 
0.0021875 0.0095625 0 0 0 0 0 0 
0.0065625 0.0095625 5.67605e-16 2.77459e+18 1.47331e-07 31.9208 7.13754 15.4204 
0.0021875 0.0099375 0 0 0 0 0 0 
0.0065625 0.0099375 -1.13521e-15 2.07147e+18 1.09995e-07 25.8176 -5.8878 -45.9222 
0.0021875 0.0103125 0 0 0 0 0 0 
0.0065625 0.0103125 5.67605e-16 1.99615e+18 1.05995e-07 -6.93073 -46.358 8.46852 
0.0459375 0.0099375 42.2549 3.72865e+20 1.97991e-05 36.4736 11.3717 1.02838 
0.0503125 0.0099375 25.6013 4.43295e+20 2.3539e-05 26.7383 4.89096 -2.21608 
0.0459375 0.0103125 44.2209 3.79268e+20 2.01391e-05 38.4791 11.3022 -3.4555 
0.0503125 0.0103125 21.0158 4.79075e+20 2.54389e-05 24.0104 -1.08737 -1.03509 
0.0021875 0.0106875 0 0 0 0 0 0 
0.0065625 0.0106875 1.49416 5.77832e+18 3.06829e-07 -1.47239 -3.98751 -15.7101 
0.0021875 0.0110625 0 0 0 0 0 0 
0.0065625 0.0110625 2.38033 1.11649e+19 5.92855e-07 -0.770802 -11.7675 -6.84627 
0.0021875 0.0114375 -5.67605e-16 6.58924e+18 3.49889e-07 13.3491 -39.9245 7.74833 
0.0065625 0.0114375 4.76681 7.19921e+18 3.82278e-07 -17.9165 -7.68001 1.56456 
0.0021875 0.0118125 0 0 0 0 0 0 
0.0065625 0.0118125 1.83314 6.97067e+18 3.70142e-07 0.84654 -15.1379 -6.76425 
0.0459375 0.0106875 40.2775 3.69812e+20 1.9637e-05 49.9077 17.7056 -5.12736 
0.0503125 0.0106875 19.524 4.98861e+20 2.64895e-05 12.1259 -8.05727 8.04334 
0.0459375 0.0110625 36.6418 3.51694e+20 1.86749e-05 43.6672 6.15198 4.64663 
0.0503125 0.0110625 23.8255 5.39636e+20 2.86547e-05 28.3281 9.12249 -5.90511 
0.0459375 0.0114375 32.6015 3.79759e+20 2.01652e-05 35.7123 8.76962 -4.03959 
0.0503125 0.0114375 21.1149 6.01134e+20 3.19202e-05 18.7873 4.04753 2.87089 
0.0459375 0.0118125 34.0967 3.74673e+20 1.98952e-05 42.4268 24.4679 -1.81994 
0.0503125 0.0118125 21.3063 5.29771e+20 2.81308e-05 22.3954 4.40191 -1.7394 
0.0546875 0.0114375 8.60893 8.28548e+20 4.39959e-05 10.1745 -1.35413 1.86919 
0.0590625 0.0114375 2.83028 3.24965e+19 1.72556e-06 -0.573438 7.75252 8.98208 
0.0546875 0.0118125 8.179 8.02244e+20 4.25992e-05 7.8282 0.56191 1.63793 
0.0590625 0.0118125 1.63278 1.9363e+19 1.02817e-06 -5.99915 10.43 2.68415 
0.0021875 0.0121875 0 0 0 0 0 0 
0.0065625 0.0121875 2.30001 1.35124e+19 7.17507e-07 -1.3517 -4.58699 -6.99923 
0.0021875 0.0125625 0 0 0 0 0 0 
0.0065625 0.0125625 1.58742 5.68348e+18 3.01793e-07 -16.9008 16.8141 -11.0062 
0.0459375 0.0121875 36.8308 3.9017e+20 2.0718e-05 33.187 20.3093 -11.4987 
0.0503125 0.0121875 20.5106 5.60763e+20 2.97765e-05 19.9671 -0.51611 1.18165 
0.0459375 0.0125625 39.0553 3.57221e+20 1.89684e-05 51.4851 25.127 3.41959 
0.0503125 0.0125625 20.2724 5.8499e+20 3.1063e-05 23.0855 4.51623 -0.385775 
0.0459375 0.0129375 34.1414 3.75507e+20 1.99394e-05 24.6648 11.8 5.17756 
0.0503125 0.0129375 18.6194 5.98265e+20 3.17679e-05 18.3443 1.65309 8.18928 
0.0459375 0.0133125 35.5506 3.98948e+20 2.11841e-05 33.0298 20.482 -3.10554 
0.0503125 0.0133125 16.7368 6.13885e+20 3.25973e-05 20.8393 5.53129 -0.00703339 
0.0546875 0.0121875 7.98843 8.34544e+20 4.43143e-05 7.71229 -1.82498 0.70415 
0.0590625 0.0121875 1.51853 2.11131e+19 1.1211e-06 -18.977 7.9883 2.23037 
0.0546875 0.0125625 8.30239 8.38166e+20 4.45066e-05 11.316 4.05325 -1.99745 
0.0590625 0.0125625 1.60566 2.39391e+19 1.27116e-06 -2.34779 3.80029 -3.71466 
0.0546875 0.0129375 7.83533 9.21233e+20 4.89175e-05 6.58395 -1.16413 -1.77553 
0.0590625 0.0129375 1.8 2.08836e+19 1.10892e-06 -19.4834 26.5608 -11.3945 
0.0546875 0.0133125 8.02236 8.16188e+20 4.33396e-05 7.35277 -0.636986 2.20562 
0.0590625 0.0133125 1.71762 2.70604e+19 1.43691e-06 5.31864 22.1186 11.7634 
0.0459375 0.0136875 32.1645 4.37648e+20 2.32391e-05 30.9358 11.6373 1.89638 
0.0503125 0.0136875 17.0583 5.79019e+20 3.07459e-05 14.0852 3.73076 0.515237 
0.0459375 0.0140625 29.3579 3.98165e+20 2.11425e-05 23.4301 9.5474 -7.19516 
0.0503125 0.0140625 16.212 6.00174e+20 3.18693e-05 21.002 8.82382 -5.34032 
0.0459375 0.0144375 29.3687 3.70713e+20 1.96848e-05 36.5304 7.78463 -9.6881 
0.0503125 0.0144375 16.7908 6.30212e+20 3.34642e-05 8.50201 0.5204 2.32934 