ITEM: TIMESTEP
200000
ITEM: NUMBER OF CELLS
790
ITEM: BOX BOUNDS oo ao pp
0 0.35
0 0.03
-0.1 0.1
ITEM: CELLS xc yc f_out[1] f_out[2] f_out[3] f_out[4] f_out[5] f_out[6] 
0.02625 0.00075 59.4727 9.09182e+19 6.04606e-07 151.466 10.4616 57.2938 
0.04375 0.00075 37.1042 9.4006e+20 6.2514e-06 23.3976 -25.216 -14.0901 
0.06125 0.00075 11.4398 1.71715e+21 1.14191e-05 62.9985 -6.71498 3.39875 
0.07875 0.00075 3.37007 1.56538e+21 1.04097e-05 13.3827 -4.09304 -1.24823 
0.09625 0.00075 1.08805 1.37235e+19 9.12613e-08 98.7671 8.10771 -23.1593 
0.11375 0.00075 1.13521e-15 1.71544e+18 1.14077e-08 213.094 -6.31897 -15.8128 
0.13125 0.00075 0 0 0 0 0 0 
0.14875 0.00075 0 0 0 0 0 0 
0.16625 0.00075 0 0 0 0 0 0 
0.18375 0.00075 0 0 0 0 0 0 
0.20125 0.00075 0 0 0 0 0 0 
0.21875 0.00075 0 0 0 0 0 0 
0.23625 0.00075 0 0 0 0 0 0 
0.25375 0.00075 0 0 0 0 0 0 
0.27125 0.00075 0 0 0 0 0 0 
0.28875 0.00075 0 0 0 0 0 0 
0.30625 0.00075 0 0 0 0 0 0 
0.32375 0.00075 0 0 0 0 0 0 
0.34125 0.00075 0 0 0 0 0 0 
0.02625 0.00225 70.0103 9.43491e+19 6.27421e-07 31.4482 40.8499 -44.9944 
0.04375 0.00225 36.7073 9.99528e+20 6.64686e-06 18.6231 -5.00352 -1.19707 
0.07875 0.00225 3.51905 1.57825e+21 1.04954e-05 13.1164 0.539637 0.628155 
0.09625 0.00225 1.22366 6.28994e+18 4.18281e-08 120.579 35.904 6.85838 
0.11375 0.00225 0.830988 2.28725e+18 1.52102e-08 132.852 6.00457 -14.4537 
0.13125 0.00225 0.0613895 1.14363e+18 7.60511e-09 102.965 1.50171 12.6928 
0.14875 0.00225 -2.83802e-16 5.71813e+17 3.80255e-09 83.7212 8.12573 5.31229 
0.16625 0.00225 0 0 0 0 0 0 
0.18375 0.00225 0 0 0 0 0 0 
0.20125 0.00225 0 0 0 0 0 0 
0.21875 0.00225 0 0 0 0 0 0 
0.23625 0.00225 0 0 0 0 0 0 
0.25375 0.00225 0 0 0 0 0 0 
0.27125 0.00225 0 0 0 0 0 0 
0.28875 0.00225 0 0 0 0 0 0 
0.30625 0.00225 0 0 0 0 0 0 
0.32375 0.00225 0 0 0 0 0 0 
0.34125 0.00225 0 0 0 0 0 0 
0.02625 0.00375 69.2135 1.19394e+20 7.93973e-07 30.5562 28.9093 26.4279 
0.04375 0.00375 32.8565 9.99071e+20 6.64382e-06 15.7327 -14.6229 -0.524602 
0.07875 0.00375 3.378 1.6014e+21 1.06493e-05 11.4835 1.04751 -0.00510787 
0.09625 0.00375 1.99741 7.54793e+18 5.01937e-08 148.948 44.7161 -17.19 
0.11375 0.00375 1.31452 1.37235e+18 9.12613e-09 139.111 14.3842 14.5488 
0.13125 0.00375 0.00569443 6.86175e+17 4.56306e-09 82.5922 8.27942 -0.779384 
0.14875 0.00375 0.536961 1.02926e+18 6.8446e-09 137.236 9.09002 3.48086 
0.16625 0.00375 0.0679039 6.86175e+17 4.56306e-09 93.3384 0.534071 -2.29211 
0.18375 0.00375 0 0 0 0 0 0 
0.20125 0.00375 0 0 0 0 0 0 
0.21875 0.00375 0 0 0 0 0 0 
0.23625 0.00375 0 0 0 0 0 0 
0.25375 0.00375 0 0 0 0 0 0 
0.27125 0.00375 0 0 0 0 0 0 
0.28875 0.00375 0 0 0 0 0 0 
0.30625 0.00375 0 0 0 0 0 0 
0.32375 0.00375 0 0 0 0 0 0 
0.34125 0.00375 0 0 0 0 0 0 
0.02625 0.00525 61.1066 1.37235e+20 9.12613e-07 2.25149 19.1182 -19.0805 
0.09625 0.00525 0.863336 6.86175e+18 4.56306e-08 114.64 51.1519 1.72448 
0.11375 0.00525 0.564933 1.71544e+18 1.14077e-08 136.033 13.5019 0.0586481 
0.13125 0.00525 0.158445 9.8025e+17 6.51866e-09 133.96 9.4926 -7.36523 
0.14875 0.00525 0.00762306 4.90125e+17 3.25933e-09 77.1928 -0.427955 3.178 
0.16625 0.00525 -2.83802e-16 2.45063e+17 1.62967e-09 83.7212 9.13887 3.27549 
0.18375 0.00525 0.0614576 4.90125e+17 3.25933e-09 93.3384 6.47808 -1.92975 
0.20125 0.00525 0 0 0 0 0 0 
0.21875 0.00525 0 0 0 0 0 0 
0.23625 0.00525 0 0 0 0 0 0 
0.25375 0.00525 0 0 0 0 0 0 
0.27125 0.00525 0 0 0 0 0 0 
0.28875 0.00525 0 0 0 0 0 0 
0.30625 0.00525 0 0 0 0 0 0 
0.32375 0.00525 0 0 0 0 0 0 
0.34125 0.00525 0 0 0 0 0 0 
0.02625 0.00675 53.7265 1.6735e+20 1.11288e-06 -19.1977 9.79807 1.67972 
0.09625 0.00675 1.07672 8.00538e+18 5.32357e-08 116.457 61.3029 5.2407 
0.11375 0.00675 0.423268 2.28725e+18 1.52102e-08 134.469 26.8985 2.16819 
0.13125 0.00675 0 1.90604e+17 1.26752e-09 76.4051 -7.28373 6.10446 
0.14875 0.00675 0.501197 5.71813e+17 3.80255e-09 143.98 16.574 6.65596 
0.16625 0.00675 0.143132 3.81208e+17 2.53504e-09 107.463 5.43362 3.53061 
0.18375 0.00675 0.0657266 5.71813e+17 3.80255e-09 94.6366 9.87222 1.91869 
0.20125 0.00675 0.550548 5.71813e+17 3.80255e-09 133.257 11.7081 -1.77286 
0.21875 0.00675 0 0 0 0 0 0 
0.23625 0.00675 0 0 0 0 0 0 
0.25375 0.00675 0 0 0 0 0 0 
0.27125 0.00675 0 0 0 0 0 0 
0.28875 0.00675 0 0 0 0 0 0 
0.30625 0.00675 0 0 0 0 0 0 
0.32375 0.00675 0 0 0 0 0 0 
0.34125 0.00675 0 0 0 0 0 0 
0.09625 0.00825 1.05317 7.3296e+18 4.87418e-08 107.779 74.1246 1.20596 
0.11375 0.00825 0.33997 1.24759e+18 8.29648e-09 102.327 25.2272 -8.35193 
0.13125 0.00825 0.238098 1.09164e+18 7.25942e-09 121.812 20.9024 5.26295 
0.14875 0.00825 0 1.55949e+17 1.03706e-09 112.973 15.9091 -6.44097 
0.16625 0.00825 0 0 0 0 0 0 
0.18375 0.00825 0 0 0 0 0 0 
0.20125 0.00825 0.115373 4.67847e+17 3.11118e-09 99.549 7.33325 2.57389 
0.21875 0.00825 1.41901e-16 1.55949e+17 1.03706e-09 76.4051 8.10805 4.9575 
0.23625 0.00825 0 1.55949e+17 1.03706e-09 110.272 12.5274 -6.01925 
0.25375 0.00825 0 0 0 0 0 0 
0.27125 0.00825 0 0 0 0 0 0 
0.28875 0.00825 0 0 0 0 0 0 
0.30625 0.00825 0 0 0 0 0 0 
0.32375 0.00825 0 0 0 0 0 0 
0.34125 0.00825 0 0 0 0 0 0 
0.09625 0.00975 1.08483 8.18132e+18 5.44058e-08 111.052 74.9391 -5.07247 
0.11375 0.00975 0.595482 1.18761e+18 7.89761e-09 135.538 46.655 -10.389 
0.13125 0.00975 0.0602852 2.63913e+17 1.75502e-09 149.38 27.0275 -5.60452 
0.14875 0.00975 -1.41901e-16 1.31957e+17 8.77512e-10 88.4935 7.59518 3.31964 
0.16625 0.00975 0.0591039 3.9587e+17 2.63254e-09 113.43 10.8307 2.34957 
0.18375 0.00975 0 0 0 0 0 0 
0.20125 0.00975 0.0221067 2.63913e+17 1.75502e-09 114.849 6.98411 5.66829 
0.21875 0.00975 0.114958 3.9587e+17 2.63254e-09 99.549 7.64931 2.11462 
0.23625 0.00975 0.510212 5.27827e+17 3.51005e-09 118.743 7.4916 2.42602 
0.25375 0.00975 0.633377 2.63913e+17 1.75502e-09 169.77 -3.3335 15.2688 
0.27125 0.00975 0 1.31957e+17 8.77512e-10 107.49 2.43326 8.14735 
0.28875 0.00975 0 0 0 0 0 0 
0.30625 0.00975 1.13521e-15 1.31957e+17 8.77512e-10 232.049 3.76966 23.118 
0.32375 0.00975 0 0 0 0 0 0 
0.34125 0.00975 0 0 0 0 0 0 
0.09625 0.01125 0.825274 6.86175e+18 4.56306e-08 102.052 82.0632 -5.17646 
0.11375 0.01125 0.749272 1.48671e+18 9.88664e-09 136.452 50.0837 11.4263 
0.13125 0.01125 0.107451 5.71813e+17 3.80255e-09 123.458 19.4673 -1.37937 
0.14875 0.01125 0 1.14363e+17 7.60511e-10 133.741 20.7165 -0.322375 
0.16625 0.01125 0.0330713 3.43088e+17 2.28153e-09 102.986 6.7432 1.94013 
0.18375 0.01125 0.0514761 3.43088e+17 2.28153e-09 107.265 5.40933 2.31103 
0.20125 0.01125 0 1.14363e+17 7.60511e-10 218.752 27.8446 4.74284 
0.21875 0.01125 0 0 0 0 0 0 
0.23625 0.01125 0 1.14363e+17 7.60511e-10 77.9806 4.85347 -0.641509 
0.25375 0.01125 0.104362 4.5745e+17 3.04204e-09 100.401 8.96058 0.741302 
0.27125 0.01125 0 0 0 0 0 0 
0.28875 0.01125 0 1.14363e+17 7.60511e-10 107.49 3.60966 7.69873 
0.30625 0.01125 0 1.14363e+17 7.60511e-10 107.49 4.57883 7.1648 
0.32375 0.01125 0 0 0 0 0 0 
0.34125 0.01125 0 1.14363e+17 7.60511e-10 232.049 13.1281 19.3986 
0.09625 0.01275 0.854024 5.34813e+18 3.55651e-08 90.0849 78.5888 -2.83689 
0.11375 0.01275 0.52115 2.32089e+18 1.54339e-08 118.257 45.7311 -0.639788 
0.13125 0.01275 0.599491 1.10999e+18 7.38143e-09 127.731 32.899 1.00879 
0.14875 0.01275 0.595885 7.06357e+17 4.69727e-09 154.702 22.0669 2.89308 
0.16625 0.01275 0.623112 3.02724e+17 2.01312e-09 125.318 21.817 -0.511332 
0.18375 0.01275 0.0586176 2.01816e+17 1.34208e-09 107.238 11.0695 4.43622 
0.20125 0.01275 0 1.00908e+17 6.71039e-10 232.049 -15.3169 17.7213 
0.21875 0.01275 0.00428704 2.01816e+17 1.34208e-09 124.655 11.5937 0.685157 
0.23625 0.01275 -1.41901e-16 1.00908e+17 6.71039e-10 83.7212 9.62995 1.22957 
0.25375 0.01275 0 1.00908e+17 6.71039e-10 76.4051 9.0305 2.96096 
0.27125 0.01275 0.14124 2.01816e+17 1.34208e-09 107.463 7.11031 1.7936 
0.28875 0.01275 0 0 0 0 0 0 
0.30625 0.01275 0 0 0 0 0 0 
0.32375 0.01275 0 0 0 0 0 0 
0.34125 0.01275 2.83802e-16 1.00908e+17 6.71039e-10 107.49 5.34907 6.60965 
0.00875 0.01425 21.2669 3.42663e+20 2.27871e-06 35.1129 32.7059 -2.18794 
0.07875 0.01425 1.1147 9.29417e+18 6.18062e-08 30.074 115.146 1.31764 
0.09625 0.01425 0.748004 5.41717e+18 3.60242e-08 88.315 84.143 -4.77803 
0.11375 0.01425 0.516818 1.53487e+18 1.02069e-08 135.899 57.5601 2.80467 
0.13125 0.01425 0.262055 2.70859e+17 1.80121e-09 183.779 51.7538 10.3155 
0.14875 0.01425 0.289345 4.51431e+17 3.00202e-09 154.918 31.9038 -0.359173 
0.16625 0.01425 1.11022 4.51431e+17 3.00202e-09 150.67 25.5074 5.14038 
0.18375 0.01425 0 0 0 0 0 0 
0.20125 0.01425 0.0284824 1.80572e+17 1.20081e-09 100.733 12.3979 -0.591305 
0.21875 0.01425 0 0 0 0 0 0 
0.23625 0.01425 0 9.02862e+16 6.00403e-10 127.102 7.34452 -0.815196 
0.25375 0.01425 0 9.02862e+16 6.00403e-10 83.7212 9.64994 1.06132 
0.27125 0.01425 0.0734807 2.70859e+17 1.80121e-09 104.593 9.95441 -0.647039 
0.28875 0.01425 0 9.02862e+16 6.00403e-10 77.9806 4.86937 -0.50692 
0.30625 0.01425 0 9.02862e+16 6.00403e-10 77.9806 4.87271 -0.473731 
0.32375 0.01425 0 0 0 0 0 0 
0.34125 0.01425 0 0 0 0 0 0 
0.07875 0.01575 1.31666 7.35788e+18 4.89299e-08 32.6558 112.914 10.3695 
0.09625 0.01575 0.962358 5.228e+18 3.47662e-08 90.401 94.0521 1.72229 
0.11375 0.01575 0.643138 1.14363e+18 7.60511e-09 116.516 58.9854 -5.39789 
0.13125 0.01575 0.340557 6.535e+17 4.34578e-09 120.446 40.9808 5.62286 
0.14875 0.01575 0.196922 2.45063e+17 1.62967e-09 148.392 12.6941 10.4776 
0.16625 0.01575 0.377634 4.08438e+17 2.71611e-09 155.26 16.0393 2.15518 
0.18375 0.01575 0.251485 2.45063e+17 1.62967e-09 157.078 13.5487 15.8864 
0.20125 0.01575 0 0 0 0 0 0 
0.21875 0.01575 0.0585951 1.63375e+17 1.08644e-09 107.238 11.383 3.57492 
0.23625 0.01575 0 0 0 0 0 0 
0.25375 0.01575 2.83802e-16 8.16875e+16 5.43222e-10 122.208 15.9128 1.83618 
0.27125 0.01575 -1.41901e-16 8.16875e+16 5.43222e-10 83.7212 9.66316 0.93338 
0.28875 0.01575 0 8.16875e+16 5.43222e-10 127.102 7.35923 -0.669479 
0.30625 0.01575 0 8.16875e+16 5.43222e-10 136.945 9.56597 3.61815 
0.32375 0.01575 0 8.16875e+16 5.43222e-10 77.9806 4.87546 -0.444604 
0.34125 0.01575 0 0 0 0 0 0 
0.07875 0.01725 1.06859 4.60667e+18 3.06344e-08 25.0245 92.0145 7.60494 
0.09625 0.01725 0.783974 5.14631e+18 3.4223e-08 87.8347 96.2639 6.47383 
0.11375 0.01725 0.582358 1.34252e+18 8.92773e-09 129.681 56.0532 4.5301 
0.13125 0.01725 0.425533 7.45842e+17 4.95985e-09 132.078 40.3853 -2.00941 
0.14875 0.01725 0.48565 5.2209e+17 3.4719e-09 124.221 16.6083 0.979288 
0.16625 0.01725 0.102836 2.98337e+17 1.98394e-09 78.4976 11.349 -4.61334 
0.18375 0.01725 0.120915 1.49168e+17 9.9197e-10 112.403 0.701766 3.5435 
0.20125 0.01725 0.174433 2.23753e+17 1.48796e-09 128.728 9.95914 3.49941 
0.21875 0.01725 0.0322961 2.23753e+17 1.48796e-09 103.265 10.8925 -1.64803 
0.23625 0.01725 0.697137 1.49168e+17 9.9197e-10 153.623 18.0713 2.5347 
0.25375 0.01725 0 0 0 0 0 0 
0.27125 0.01725 -4.25704e-16 7.45842e+16 4.95985e-10 83.7212 9.67234 0.832865 
0.28875 0.01725 0.0479969 1.49168e+17 9.9197e-10 93.3384 11.3725 -0.443107 
0.30625 0.01725 0 0 0 0 0 0 
0.32375 0.01725 0.00469727 1.49168e+17 9.9197e-10 132.024 8.53708 1.29838 
0.34125 0.01725 1.41901e-16 7.45842e+16 4.95985e-10 77.9806 4.87774 -0.418838 
0.07875 0.01875 0.862147 4.9445e+18 3.28809e-08 27.012 110.501 4.09798 
0.09625 0.01875 0.573987 4.46014e+18 2.96599e-08 73.1933 93.3923 -2.10437 
0.11375 0.01875 0.768997 1.37235e+18 9.12613e-09 117.695 74.6767 2.6426 
0.13125 0.01875 0.399657 1.64682e+18 1.09514e-08 128.813 45.7122 1.50707 
0.14875 0.01875 0.261824 2.7447e+17 1.82523e-09 173.006 39.7582 -6.40349 
0.16625 0.01875 0 0 0 0 0 0 
0.18375 0.01875 0.435102 2.05853e+17 1.36892e-09 109.749 21.1156 1.27132 
0.20125 0.01875 0.0225179 1.37235e+17 9.12613e-10 166.89 27.1583 -1.3061 
0.21875 0.01875 0 0 0 0 0 0 
0.23625 0.01875 0.0663487 2.7447e+17 1.82523e-09 114.058 10.8832 5.10209 
0.25375 0.01875 1.41901e-16 6.86175e+16 4.56306e-10 88.4935 8.11567 1.68601 
0.27125 0.01875 0 6.86175e+16 4.56306e-10 122.208 15.9447 1.53411 
0.28875 0.01875 0 0 0 0 0 0 
0.30625 0.01875 0 6.86175e+16 4.56306e-10 76.4051 9.27372 2.07735 
0.32375 0.01875 0 0 0 0 0 0 
0.34125 0.01875 0 6.86175e+16 4.56306e-10 127.102 7.36777 -0.567825 
0.07875 0.02025 0.854389 3.10666e+18 2.06593e-08 17.7203 110.561 -7.26355 
0.09625 0.02025 0.752703 2.9226e+18 1.94353e-08 82.7944 99.8811 1.47698 
0.11375 0.02025 0.607991 1.52483e+18 1.01401e-08 108.996 60.3752 -5.74279 
0.13125 0.02025 0.713543 6.98882e+17 4.64757e-09 129.223 45.3173 1.33919 
0.14875 0.02025 0.258875 1.27069e+17 8.45012e-10 107.808 25.8386 9.88367 
0.16625 0.02025 0 0 0 0 0 0 
0.18375 0.02025 0.138856 3.81208e+17 2.53504e-09 130.769 24.8725 -0.280919 
0.20125 0.02025 0.00533875 1.27069e+17 8.45012e-10 138.431 22.4646 -3.0522 
0.21875 0.02025 0.0334972 1.27069e+17 8.45012e-10 182.894 21.7875 14.2816 
0.23625 0.02025 0 6.35347e+16 4.22506e-10 112.973 17.0062 -2.31784 
0.25375 0.02025 0 6.35347e+16 4.22506e-10 91.376 8.28313 -11.4228 
0.27125 0.02025 2.83802e-16 6.35347e+16 4.22506e-10 88.4935 8.14172 1.5554 
0.28875 0.02025 0.0333417 1.27069e+17 8.45012e-10 70.3534 4.38724 -0.232237 
0.30625 0.02025 7.09506e-17 6.35347e+16 4.22506e-10 56.9857 -0.890221 -1.2268 
0.32375 0.02025 0.0830013 2.54139e+17 1.69002e-09 75.162 5.30036 -0.837414 
0.34125 0.02025 1.41901e-16 6.35347e+16 4.22506e-10 56.9857 -0.845149 -1.25827 
0.07875 0.02175 2.01965 3.06529e+18 2.03842e-08 47.726 96.1752 -10.4742 
0.09625 0.02175 1.12741 3.13511e+18 2.08485e-08 73.8908 95.5215 2.21261 
0.11375 0.02175 0.664302 1.59713e+18 1.06209e-08 108.496 61.7392 0.742854 
0.13125 0.02175 0.24058 8.28142e+17 5.50715e-09 116.474 41.1642 0.478552 
0.14875 0.02175 0.470997 5.9153e+17 3.93368e-09 118.185 33.5254 -2.34344 
0.16625 0.02175 0.757896 2.36612e+17 1.57347e-09 148.51 23.3984 -0.70881 
0.18375 0.02175 0.436858 4.14071e+17 2.75357e-09 135.504 18.7585 -3.56073 
0.20125 0.02175 -5.67605e-16 5.9153e+16 3.93368e-10 168.192 31.9049 -3.39541 
0.21875 0.02175 0.460387 2.95765e+17 1.96684e-09 119.494 5.22869 -5.3185 
0.23625 0.02175 1.41901e-16 5.9153e+16 3.93368e-10 56.9857 -0.970543 -1.16429 
0.25375 0.02175 0.234058 2.95765e+17 1.96684e-09 99.1569 4.92303 2.86513 
0.27125 0.02175 0.187096 2.36612e+17 1.57347e-09 104.321 6.30874 -4.16166 
0.28875 0.02175 7.09506e-17 5.9153e+16 3.93368e-10 56.9857 -0.918405 -1.20584 
0.30625 0.02175 -1.41901e-16 5.9153e+16 3.93368e-10 83.7212 9.68392 0.685138 
0.32375 0.02175 0 0 0 0 0 0 
0.34125 0.02175 0.0474819 1.18306e+17 7.86735e-10 93.3384 11.5161 -0.343203 
0.00875 0.02325 0 0 0 0 0 0 
0.02625 0.02325 0 0 0 0 0 0 
0.04375 0.02325 0 0 0 0 0 0 
0.06125 0.02325 1.55433 6.83571e+19 4.54575e-07 34.2465 55.1265 -3.2948 
0.07875 0.02325 1.10654 2.7115e+18 1.80315e-08 70.8267 39.5124 12.7018 
0.09625 0.02325 0.94398 2.87751e+18 1.91354e-08 86.2475 91.1908 -1.44781 
0.11375 0.02325 0.524032 1.21741e+18 8.09576e-09 111.64 65.9609 -0.654173 
0.13125 0.02325 1.01317 7.19377e+17 4.78386e-09 169.722 61.5267 -3.5774 
0.14875 0.02325 0.307781 4.9803e+17 3.3119e-09 129.087 37.594 3.17096 
0.16625 0.02325 0.721562 3.3202e+17 2.20793e-09 128.965 20.2311 2.52052 
0.18375 0.02325 0.829957 2.76683e+17 1.83995e-09 119.809 14.7448 0.772751 
0.20125 0.02325 0.944063 3.3202e+17 2.20793e-09 121.423 16.8085 -1.08059 
0.21875 0.02325 0.056923 1.10673e+17 7.35978e-10 118.389 0.0646777 -0.973648 
0.23625 0.02325 0.107323 1.6601e+17 1.10397e-09 130.692 13.4241 1.99738 
0.25375 0.02325 0.197031 1.6601e+17 1.10397e-09 139.694 6.76522 -0.607232 
0.27125 0.02325 0.0569096 1.10673e+17 7.35978e-10 118.389 0.531759 -0.8676 
0.28875 0.02325 0.579046 1.6601e+17 1.10397e-09 135.816 11.946 2.59312 
0.30625 0.02325 0.0539029 2.21347e+17 1.47196e-09 125.481 4.95091 -2.18841 
0.32375 0.02325 0.106973 1.6601e+17 1.10397e-09 108.954 4.11563 -1.24099 
0.34125 0.02325 0 0 0 0 0 0 
0.00875 0.02475 0 0 0 0 0 0 
0.02625 0.02475 0 0 0 0 0 0 
0.04375 0.02475 0 0 0 0 0 0 
0.06125 0.02475 1.15303 4.65075e+19 3.09275e-07 42.2135 63.3486 1.19326 
0.07875 0.02475 1.10015 4.05467e+18 2.69636e-08 72.0014 40.6293 6.19142 
0.09625 0.02475 0.968912 2.85906e+18 1.90128e-08 75.4753 97.8581 -1.6628 
0.11375 0.02475 0.684178 1.92337e+18 1.27904e-08 93.1421 53.0353 -3.71993 
0.13125 0.02475 0.607323 8.31727e+17 5.53099e-09 113.023 43.0837 1.99389 
0.14875 0.02475 0.676826 9.35693e+17 6.22236e-09 132.587 37.4762 -2.60712 
0.16625 0.02475 0.341768 2.59915e+17 1.72843e-09 108.23 27.1704 2.15258 
0.18375 0.02475 1.6911 2.07932e+17 1.38275e-09 281.387 50.5028 -1.69316 
0.20125 0.02475 0.408548 2.07932e+17 1.38275e-09 147.611 23.9441 -3.52943 
0.21875 0.02475 0.0116419 1.55949e+17 1.03706e-09 151.705 24.3598 -0.897681 
0.23625 0.02475 0 5.1983e+16 3.45687e-10 234.788 4.35896 5.25763 
0.25375 0.02475 0.166702 2.07932e+17 1.38275e-09 159.254 19.4039 1.38115 
0.27125 0.02475 5.67605e-16 5.1983e+16 3.45687e-10 105.445 13.1931 7.71161 
0.28875 0.02475 0.0708459 1.55949e+17 1.03706e-09 116.93 13.5571 2.78637 
0.30625 0.02475 0 5.1983e+16 3.45687e-10 88.4935 8.17894 1.34603 
0.32375 0.02475 -5.67605e-16 5.1983e+16 3.45687e-10 136.574 2.17044 -5.43016 
0.34125 0.02475 0 0 0 0 0 0 
0.00875 0.02625 0 0 0 0 0 0 
0.02625 0.02625 0 0 0 0 0 0 
0.04375 0.02625 0 0 0 0 0 0 
0.06125 0.02625 1.00781 2.61237e+19 1.73722e-07 36.8729 75.7245 -1.16035 
0.07875 0.02625 0.909174 4.50915e+18 2.99859e-08 80.8276 41.7472 2.24617 
0.09625 0.02625 1.07693 3.1368e+18 2.08597e-08 76.5764 91.0715 1.66181 
0.11375 0.02625 0.516561 1.37235e+18 9.12613e-09 106.866 75.5014 -3.25075 
0.13125 0.02625 0.734238 1.12729e+18 7.49646e-09 133.502 65.0978 -1.16017 
0.14875 0.02625 0.674367 7.35188e+17 4.889e-09 127.64 47.8252 0.545806 
0.16625 0.02625 0.70065 3.43088e+17 2.28153e-09 125.135 30.7431 0.263074 
0.18375 0.02625 0.120606 1.9605e+17 1.30373e-09 121.682 28.8405 4.03481 
0.20125 0.02625 0.0940733 9.8025e+16 6.51866e-10 62.5825 16.3575 -0.0932825 
0.21875 0.02625 0.1354 9.8025e+16 6.51866e-10 125.037 22.7666 1.40972 
0.23625 0.02625 0.502259 9.8025e+16 6.51866e-10 230.388 45.0278 -0.235821 
0.25375 0.02625 0 0 0 0 0 0 
0.27125 0.02625 0.873236 9.8025e+16 6.51866e-10 161.175 3.04184 0.873708 
0.28875 0.02625 0.347455 9.8025e+16 6.51866e-10 133.372 6.61614 -9.6427 
0.30625 0.02625 0.0053115 9.8025e+16 6.51866e-10 89.4687 6.3162 -6.07517 
0.32375 0.02625 0.0478276 1.47038e+17 9.77799e-10 99.421 8.64322 -0.265082 
0.34125 0.02625 -2.83802e-16 4.90125e+16 3.25933e-10 83.7212 9.69068 0.581841 
0.00875 0.02775 0 0 0 0 0 0 
0.02625 0.02775 0 0 0 0 0 0 
0.04375 0.02775 0 0 0 0 0 0 
0.06125 0.02775 0.878677 2.13271e+19 1.41825e-07 29.3659 81.5421 -2.93821 
0.07875 0.02775 1.02679 4.35814e+18 2.89816e-08 79.1598 49.5769 -2.64272 
0.09625 0.02775 0.864483 3.24542e+18 2.15821e-08 77.8654 71.2783 -1.54728 
0.11375 0.02775 0.623784 1.3909e+18 9.24945e-09 106.376 73.3147 6.17511 
0.13125 0.02775 0.932529 6.02721e+17 4.0081e-09 125.531 64.0177 1.4769 
0.14875 0.02775 0.347682 4.17269e+17 2.77484e-09 110.809 34.3703 -0.125537 
0.16625 0.02775 0.561999 2.78179e+17 1.84989e-09 122.477 24.385 2.14209 
0.18375 0.02775 0.419385 1.3909e+17 9.24945e-10 112.759 9.75926 0.0895475 
0.20125 0.02775 5.67605e-16 4.63632e+16 3.08315e-10 132.982 12.6366 -17.5853 
0.21875 0.02775 0.634191 1.3909e+17 9.24945e-10 126.099 27.3249 -1.74543 
0.23625 0.02775 0 4.63632e+16 3.08315e-10 130.569 23.1585 -1.11605 
0.25375 0.02775 0.0240577 9.27264e+16 6.1663e-10 145.936 20.5778 0.920156 
0.27125 0.02775 0 0 0 0 0 0 
0.28875 0.02775 0.00579277 9.27264e+16 6.1663e-10 109.209 15.342 2.60125 
0.30625 0.02775 0.103145 9.27264e+16 6.1663e-10 157.867 18.136 6.56452 
0.32375 0.02775 0.479842 9.27264e+16 6.1663e-10 180.386 10.0428 3.87389 
0.34125 0.02775 0.00242347 9.27264e+16 6.1663e-10 88.0275 5.0195 -0.990922 
0.00875 0.02925 0 0 0 0 0 0 
0.02625 0.02925 0 0 0 0 0 0 
0.04375 0.02925 0 0 0 0 0 0 
0.06125 0.02925 0.8156 1.73743e+19 1.15539e-07 28.9118 86.0809 -2.12722 
0.07875 0.02925 0.780931 4.48653e+18 2.98354e-08 84.051 50.5694 1.03597 
0.09625 0.02925 0.910665 2.81508e+18 1.87203e-08 76.4124 73.6917 0.332433 
0.11375 0.02925 0.633185 1.71544e+18 1.14077e-08 91.2604 59.2814 1.31653 
0.13125 0.02925 1.08274 9.23697e+17 6.14259e-09 132.638 57.4107 4.13241 
0.14875 0.02925 0.233135 5.71813e+17 3.80255e-09 114.467 41.3464 0.329898 
0.16625 0.02925 0.231384 4.83841e+17 3.21755e-09 116.487 35.8648 2.33379 
0.18375 0.02925 0.771431 2.63913e+17 1.75502e-09 127.836 32.217 4.44452 
0.20125 0.02925 0.22249 1.75942e+17 1.17002e-09 127.919 19.427 -3.38133 
0.21875 0.02925 0.23113 1.75942e+17 1.17002e-09 113.739 20.6359 0.864082 
0.23625 0.02925 0.309003 1.75942e+17 1.17002e-09 167.162 23.0598 -7.53492 
0.25375 0.02925 0.121501 8.79712e+16 5.85008e-10 124.846 17.1627 -1.79903 
0.27125 0.02925 0 0 0 0 0 0 
0.28875 0.02925 5.67605e-16 4.39856e+16 2.92504e-10 161.379 21.3873 2.19793 
0.30625 0.02925 0 0 0 0 0 0 
0.32375 0.02925 0.459299 1.75942e+17 1.17002e-09 148.689 16.7285 -3.63157 
0.34125 0.02925 0 4.39856e+16 2.92504e-10 122.208 15.9855 1.02634 
0.07875 0.00675 3.02796 2.81839e+21 1.87423e-05 1.20347 1.39538 0.397469 
0.07875 0.00675 1.36316 4.16947e+19 2.7727e-07 52.8234 86.3213 0.577883 
0.07875 0.00825 2.83873 3.04255e+21 2.02329e-05 0.174641 1.31991 0.0676857 
0.07875 0.00825 1.22756 2.92977e+19 1.9483e-07 45.0445 84.0842 -7.55552 
0.07875 0.01275 2.21406 3.98436e+21 2.6496e-05 -2.04545 0.93464 -1.32595 
0.07875 0.01275 1.13865 7.53101e+18 5.00812e-08 34.7296 93.7499 3.3813 
0.004375 0.002625 1.8555 7.02409e+21 4.67102e-05 -3.83277 28.155 2.43618 
0.013125 0.002625 0 0 0 0 0 0 
0.013125 0.003375 0 1.67406e+18 1.11325e-08 -97.8777 -192.956 -265.972 
0.013125 0.004125 103.433 9.58782e+18 6.3759e-08 135.047 171.831 70.5884 
0.013125 0.004875 47.4828 1.27486e+19 8.47785e-08 -46.9607 87.2197 -131.89 
0.013125 0.005625 55.1846 1.70755e+19 1.13552e-07 83.9617 -93.5816 -25.1978 
0.013125 0.006375 53.3208 3.10194e+19 2.06279e-07 35.4612 87.8496 52.3659 
0.013125 0.007125 38.4037 3.4098e+19 2.26752e-07 20.7258 -15.9252 20.3949 
0.013125 0.007875 35.1922 6.67234e+19 4.43711e-07 -11.3652 12.6841 -24.1746 
0.013125 0.008625 24.1562 1.03501e+20 6.88281e-07 68.8176 -8.28483 16.21 
0.039375 0.007875 41.4921 6.54154e+20 4.35012e-06 -3.3541 6.50891 18.0975 
0.039375 0.008625 41.7549 6.99899e+20 4.65433e-06 -6.80914 2.70808 -17.874 
0.048125 0.008625 25.1048 1.71484e+21 1.14037e-05 2.64275 0.0757593 -0.732206 
0.013125 0.009375 24.0146 1.80883e+20 1.20287e-06 74.8771 18.4605 -3.1072 
0.013125 0.010125 16.4909 2.97343e+20 1.97733e-06 66.5345 12.8188 2.93363 
0.039375 0.009375 43.6297 7.15269e+20 4.75654e-06 22.368 -4.58968 -4.77162 
0.048125 0.009375 23.2444 1.77582e+21 1.18092e-05 2.68784 -6.17044 0.713526 
0.039375 0.010125 38.9614 7.47168e+20 4.96867e-06 -15.1112 -12.1 4.31742 
0.013125 0.010875 15.9486 3.61543e+20 2.40426e-06 64.837 21.1878 -8.35904 
0.013125 0.011625 15.3138 4.36496e+20 2.9027e-06 60.0705 16.0859 -5.83782 
0.039375 0.010875 39.4845 8.30508e+20 5.52288e-06 -2.22813 0.310773 2.32963 
0.039375 0.011625 37.106 8.09244e+20 5.38147e-06 -3.1544 -4.47211 1.81417 
0.056875 0.010875 8.21799 6.50669e+21 4.32695e-05 1.67001 -0.844098 -0.969543 
0.056875 0.010875 2.42524 2.64217e+21 1.75704e-05 -1.96052 5.9158 1.2505 
0.065625 0.010875 2.73862 2.88998e+21 1.92184e-05 -5.46253 1.38431 -0.219386 
0.065625 0.011625 2.57481 3.16039e+21 2.10166e-05 -4.99228 2.41192 -1.53353 
0.013125 0.012375 14.2225 5.30303e+20 3.52652e-06 54.1377 26.8863 0.744322 
0.004375 0.013125 0 0 0 0 0 0 
0.013125 0.013125 22.9775 2.76653e+20 1.83974e-06 52.7997 54.2465 -3.61644 
0.021875 0.012375 41.7708 1.85475e+20 1.23341e-06 5.55428 16.1136 -8.17517 
0.030625 0.012375 42.1573 3.95486e+20 2.62998e-06 -21.124 4.70846 -15.5569 
0.021875 0.013125 41.8048 2.07421e+20 1.37935e-06 30.859 35.983 1.46923 
0.030625 0.013125 43.5565 4.45426e+20 2.96208e-06 -5.12065 6.09147 5.13515 
0.039375 0.012375 35.2055 8.68323e+20 5.77435e-06 -1.88995 -4.72257 -4.06291 
0.039375 0.013125 34.7309 9.19082e+20 6.1119e-06 2.19982 -6.97584 6.08845 
0.065625 0.012375 2.33859 3.45925e+21 2.3004e-05 -2.85895 -0.120412 -0.526315 
0.065625 0.013125 0 0 0 0 0 0 
0.021875 0.013875 40.1578 2.28478e+20 1.51938e-06 18.0612 16.4454 -4.14239 
0.030625 0.013875 40.7157 4.46199e+20 2.96722e-06 -16.0606 9.84227 10.2757 
0.021875 0.014625 41.4346 2.47375e+20 1.64504e-06 32.4997 47.3425 5.4803 
0.030625 0.014625 39.3516 4.77507e+20 3.17542e-06 -11.8005 -9.26864 7.43695 
0.039375 0.013875 33.3309 9.7919e+20 6.51162e-06 -3.33517 -16.4351 2.59756 
0.039375 0.014625 31.1606 1.05706e+21 7.02946e-06 -5.95373 -11.0382 -3.70549 
0.065625 0.013875 0 0 0 0 0 0 
0.065625 0.014625 0 0 0 0 0 0 
0.004375 0.015375 0 0 0 0 0 0 
0.013125 0.015375 19.7593 4.07115e+20 2.70731e-06 32.1771 27.9386 7.21016 
0.004375 0.016125 0 0 0 0 0 0 
0.013125 0.016125 18.1407 4.45344e+20 2.96154e-06 17.5614 27.3789 3.75056 
0.021875 0.015375 36.1275 2.78152e+20 1.84971e-06 18.592 12.716 13.0763 
0.030625 0.015375 37.9574 5.25844e+20 3.49687e-06 -3.51777 -5.46372 -0.796982 
0.021875 0.016125 36.6753 3.0064e+20 1.99926e-06 14.9701 36.3122 7.5688 
0.030625 0.016125 37.6144 5.70961e+20 3.79689e-06 -1.36899 -2.11285 -9.48249 
0.039375 0.015375 31.5295 1.14809e+21 7.63479e-06 -2.69706 -2.87428 1.61856 
0.065625 0.015375 0 0 0 0 0 0 
0.065625 0.016125 0 0 0 0 0 0 
0.004375 0.016875 0 0 0 0 0 0 
0.013125 0.016875 17.5279 5.01951e+20 3.33797e-06 15.7786 16.9268 -0.356384 
0.004375 0.017625 0 0 0 0 0 0 
0.013125 0.017625 16.5889 6.06746e+20 4.03486e-06 9.0423 12.7181 3.92297 
0.021875 0.016875 33.145 3.71449e+20 2.47014e-06 35.6386 22.2587 -5.93484 
0.030625 0.016875 35.5002 6.35246e+20 4.22438e-06 16.5018 -1.25283 1.86368 
0.021875 0.017625 32.319 4.22509e+20 2.80968e-06 26.8995 14.4405 2.59793 
0.030625 0.017625 33.7117 7.1917e+20 4.78248e-06 11.4569 2.6448 -6.49903 
0.065625 0.016875 0 0 0 0 0 0 
0.065625 0.017625 0 0 0 0 0 0 
0.004375 0.018375 0 0 0 0 0 0 
0.013125 0.018375 14.0031 6.76549e+20 4.49905e-06 12.2289 1.83177 -2.94193 
0.004375 0.019125 0 0 0 0 0 0 
0.021875 0.018375 29.1473 4.7052e+20 3.12896e-06 33.1231 22.3566 -2.93046 
0.030625 0.018375 28.6897 8.26491e+20 5.49616e-06 19.2579 -0.261811 -2.47111 
0.030625 0.019125 26.4713 9.49343e+20 6.31313e-06 20.8264 2.05024 -0.334458 
0.065625 0.018375 0 0 0 0 0 0 
0.065625 0.019125 0 0 0 0 0 0 
0.004375 0.019875 0 0 0 0 0 0 
0.004375 0.020625 0 0 0 0 0 0 
0.065625 0.019875 0 0 0 0 0 0 
0.065625 0.020625 0 0 0 0 0 0 
0.004375 0.021375 0 0 0 0 0 0 
0.004375 0.022125 0 0 0 0 0 0 
0.013125 0.022125 0 0 0 0 0 0 
0.021875 0.022125 0 0 0 0 0 0 
0.030625 0.022125 0 0 0 0 0 0 
0.039375 0.022125 0 0 0 0 0 0 
0.048125 0.022125 0 0 0 0 0 0 
0.065625 0.021375 0 0 0 0 0 0 
0.056875 0.022125 1.7077 3.61864e+20 2.40639e-06 5.11265 47.7714 4.56008 
0.065625 0.022125 1.31258 9.58774e+18 6.37584e-08 83.171 0.0553511 21.1743 
0.056875 0.001875 12.9958 2.4071e+21 1.60072e-05 66.0567 -0.195066 -8.76077 
0.065625 0.001875 7.57782 1.15277e+21 7.66595e-06 58.9302 7.29226 -6.56675 
0.056875 0.002625 12.078 2.54865e+21 1.69485e-05 54.8596 -3.23696 -4.76404 
0.065625 0.002625 6.40509 1.36843e+21 9.10005e-06 48.8417 12.3629 -1.94841 
0.056875 0.003375 10.5054 3.05504e+21 2.0316e-05 33.0578 -2.40681 6.92851 
0.065625 0.003375 6.00251 1.3327e+21 8.86248e-06 36.0907 9.77808 -2.31258 
0.056875 0.004125 11.0235 4.42359e+21 2.94169e-05 2.72173 -16.1998 -0.398106 
0.056875 0.004125 6.31953 1.36542e+21 9.08004e-06 19.5758 32.9119 -4.84762 
0.065625 0.004125 5.1899 1.47216e+21 9.78985e-06 27.2293 8.10496 6.36689 
0.039375 0.004875 45.2331 6.58728e+20 4.38054e-06 30.6372 -5.62588 -4.5935 
0.048125 0.004875 28.2466 1.48742e+21 9.89132e-06 1.16919 -4.59769 10.5258 
0.039375 0.005625 41.9316 6.22132e+20 4.13718e-06 -24.4422 -6.57628 -12.6708 
0.048125 0.005625 27.2166 1.48763e+21 9.89272e-06 19.6739 0.903929 0.102047 
0.056875 0.004875 10.8085 4.52428e+21 3.00864e-05 0.597477 -1.30929 2.35978 
0.056875 0.004875 4.85442 1.57762e+21 1.04911e-05 8.08839 9.40098 -1.51834 
0.065625 0.004875 4.95133 1.63521e+21 1.08741e-05 17.4816 6.87515 -0.447471 
0.056875 0.005625 10.6721 4.78132e+21 3.17958e-05 2.45564 -8.49836 -3.68725 
0.056875 0.005625 4.16278 1.76372e+21 1.17288e-05 4.75981 9.77325 1.18477 
0.065625 0.005625 4.53761 1.74563e+21 1.16084e-05 12.1321 3.82613 -1.48342 
0.074375 0.004875 3.4365 2.47656e+21 1.64692e-05 9.78464 3.4586 -1.05438 
0.083125 0.004875 3.08526 3.27741e+21 2.17948e-05 2.86382 2.85252 0.887928 
0.083125 0.004875 1.66688 9.64449e+19 6.41358e-07 55.5832 67.5483 6.27727 
0.074375 0.005625 3.26491 2.48944e+21 1.65548e-05 6.3515 -1.43256 1.65552 
0.083125 0.005625 2.78316 3.51644e+21 2.33843e-05 0.600068 1.37826 5.24765 
0.083125 0.005625 1.51774 8.00538e+19 5.32357e-07 61.6321 77.2458 -5.09916 
0.039375 0.006375 46.2221 6.78102e+20 4.50938e-06 4.6065 18.8936 -14.8578 
0.048125 0.006375 25.5056 1.57094e+21 1.04467e-05 -0.247841 -8.74654 3.50204 
0.039375 0.007125 40.8927 6.51505e+20 4.33251e-06 0.762706 8.34211 -3.74264 
0.048125 0.007125 26.0786 1.60276e+21 1.06584e-05 -1.26168 -8.40455 2.93018 
0.056875 0.006375 9.88088 4.83907e+21 3.21798e-05 0.0715805 -4.95008 -1.46689 
0.056875 0.006375 3.60837 1.86119e+21 1.23769e-05 -0.582099 10.4263 2.16037 
0.065625 0.006375 4.20685 1.84864e+21 1.22934e-05 8.66599 1.76491 3.23693 
0.056875 0.007125 9.73028 5.07332e+21 3.37376e-05 -2.18291 -1.80689 0.102385 
0.056875 0.007125 3.41107 1.95219e+21 1.29821e-05 2.56836 7.27531 2.45954 
0.065625 0.007125 3.90886 2.00146e+21 1.33097e-05 2.72751 2.41647 -0.839506 
0.021875 0.007875 49.1267 9.21435e+19 6.12754e-07 23.7642 9.52044 -23.8328 
0.030625 0.007875 57.3774 2.43756e+20 1.62097e-06 -9.87588 12.389 -15.7609 
0.021875 0.008625 46.6151 1.17545e+20 7.81673e-07 -9.63471 35.493 -27.2855 
0.030625 0.008625 47.3559 2.86404e+20 1.90458e-06 -40.815 -12.5295 -17.9936 
0.056875 0.007875 9.5118 5.11217e+21 3.3996e-05 1.73184 -4.24696 1.19824 
0.056875 0.007875 3.07153 2.1148e+21 1.40634e-05 1.10522 3.49883 -1.87405 
0.065625 0.007875 3.7997 2.16243e+21 1.43802e-05 1.62729 5.07428 1.36547 
0.056875 0.008625 9.21212 5.37285e+21 3.57294e-05 -1.89444 -0.869519 -6.37854 
0.056875 0.008625 2.88044 2.20935e+21 1.46922e-05 -2.0977 6.55191 -1.04188 