ITEM: TIMESTEP
500000
ITEM: NUMBER OF CELLS
46690
ITEM: BOX BOUNDS oo ao pp
0 0.12
0 0.03
-0.1 0.1
ITEM: CELLS xc yc f_out[1] f_out[2] f_out[3] f_out[4] f_out[5] f_out[6] 
0.003 0.00375 0 0 0 0 0 0 
0.003 0.00525 0 0 0 0 0 0 
0.003 0.00675 0 0 0 0 0 0 
0.003 0.00825 0 0 0 0 0 0 
0.003 0.00975 0 0 0 0 0 0 
0.003 0.01125 0 0 0 0 0 0 
0.003 0.01275 0 0 0 0 0 0 
0.003 0.01425 0 0 0 0 0 0 
0.003 0.01575 0 0 0 0 0 0 
0.003 0.01725 0 0 0 0 0 0 
0.003 0.01875 0 0 0 0 0 0 
0.003 0.02025 0 0 0 0 0 0 
0.003 0.02175 0 0 0 0 0 0 
0.003 0.02325 0 0 0 0 0 0 
0.027 0.02325 0 0 0 0 0 0 
0.003 0.02475 0 0 0 0 0 0 
0.027 0.02475 0 0 0 0 0 0 
0.003 0.02625 0 0 0 0 0 0 
0.027 0.02625 0 0 0 0 0 0 
0.003 0.02775 0 0 0 0 0 0 
0.027 0.02775 0 0 0 0 0 0 
0.003 0.02925 0 0 0 0 0 0 
0.027 0.02925 0 0 0 0 0 0 
0.009 0.01425 0 0 0 0 0 0 
0.009 0.01575 0 0 0 0 0 0 
0.009 0.01725 0 0 0 0 0 0 
0.009 0.01875 0 0 0 0 0 0 
0.009 0.02025 0 0 0 0 0 0 
0.009 0.02175 0 0 0 0 0 0 
0.009 0.02325 0 0 0 0 0 0 
0.009 0.02475 0 0 0 0 0 0 
0.009 0.02625 0 0 0 0 0 0 
0.009 0.02775 0 0 0 0 0 0 
0.009 0.02925 0 0 0 0 0 0 
0.015 0.01425 0 0 0 0 0 0 
0.015 0.01575 0 0 0 0 0 0 
0.015 0.01725 0 0 0 0 0 0 
0.015 0.01875 0 0 0 0 0 0 
0.015 0.02025 0 0 0 0 0 0 
0.015 0.02175 0 0 0 0 0 0 
0.015 0.02325 0 0 0 0 0 0 
0.015 0.02475 0 0 0 0 0 0 
0.015 0.02625 0 0 0 0 0 0 
0.015 0.02775 0 0 0 0 0 0 
0.015 0.02925 0 0 0 0 0 0 
0.021 0.02325 0 0 0 0 0 0 
0.021 0.02475 0 0 0 0 0 0 
0.021 0.02625 0 0 0 0 0 0 
0.021 0.02775 0 0 0 0 0 0 
0.021 0.02925 0 0 0 0 0 0 
0.0015 0.000375 0 0 0 0 0 0 
0.0015 0.001125 0 0 0 0 0 0 
0.0015 0.001875 0 0 0 0 0 0 
0.0015 0.002625 0 0 0 0 0 0 
0.0045 0.002625 0 0 0 0 0 0 
0.0255 0.022125 0 0 0 0 0 0 
0.0285 0.022125 0 0 0 0 0 0 
0.0105 0.000375 2.23141 4.52707e+21 3.0105e-05 7.4701 3.28261 -1.35967 
0.0075 0.013125 0 0 0 0 0 0 
0.0105 0.013125 0 0 0 0 0 0 
0.0135 0.013125 0 0 0 0 0 0 
0.0165 0.013125 0 0 0 0 0 0 
0.0195 0.022125 0 0 0 0 0 0 
0.0225 0.022125 0 0 0 0 0 0 
0.00375 0.0001875 1.8717 1.11462e+22 7.41223e-05 28.8047 -1.63277 -0.0737239 
0.00525 0.0001875 1.8694 8.11855e+21 5.39884e-05 38.3606 2.88627 0.396395 
0.00375 0.0020625 0 0 0 0 0 0 
0.00525 0.0020625 0 0 0 0 0 0 
0.00675 0.0001875 1.73085 5.68902e+21 3.7832e-05 47.8938 -1.71549 -4.47054 
0.00825 0.0001875 2.08812 4.66289e+21 3.10082e-05 27.5431 1.0993 -8.18062 
0.00825 0.0005625 1.99591 4.56228e+21 3.03392e-05 22.4655 4.70468 1.67566 
0.01125 0.0031875 0 0 0 0 0 0 
0.01125 0.0035625 0 0 0 0 0 0 
0.01125 0.0046875 0 0 0 0 0 0 
0.01125 0.0050625 0 0 0 0 0 0 
0.01125 0.0054375 0 0 0 0 0 0 
0.01125 0.0058125 0 0 0 0 0 0 
0.01125 0.0076875 0 0 0 0 0 0 
0.01125 0.0080625 0 0 0 0 0 0 
0.01125 0.0084375 0 0 0 0 0 0 
0.01125 0.0088125 0 0 0 0 0 0 
0.01125 0.0091875 0 0 0 0 0 0 
0.01125 0.0061875 0 0 0 0 0 0 
0.01125 0.0065625 0 0 0 0 0 0 
0.01125 0.0069375 0 0 0 0 0 0 
0.01125 0.0073125 0 0 0 0 0 0 
0.01875 0.0009375 1.98003 2.61363e+21 1.73806e-05 2.33284 -1.18333 0.284968 
0.02025 0.0009375 2.03322 2.59552e+21 1.72602e-05 0.802537 -0.800518 2.49842 
0.003375 0.00046875 1.87218 1.0865e+22 7.22521e-05 25.2174 -3.16138 6.18536 
0.004125 0.00046875 2.01029 1.01889e+22 6.77564e-05 31.6671 0.562672 -2.3735 
0.003375 0.00065625 1.99087 1.12553e+22 7.48476e-05 23.097 -3.19509 0.614762 
0.004125 0.00065625 1.78213 1.05201e+22 6.99584e-05 33.5782 3.31131 -0.420242 
0.003375 0.00084375 1.9939 1.09073e+22 7.25338e-05 21.2938 -4.97067 -1.45851 
0.004125 0.00084375 2.05333 1.03955e+22 6.91301e-05 31.6669 -1.71333 0.842344 
0.004875 0.00084375 1.91017 9.1078e+21 6.05669e-05 35.4338 0.539452 0.220873 
0.005625 0.00084375 1.86228 7.73962e+21 5.14685e-05 39.5503 -0.010292 1.65057 
0.004875 0.00103125 1.96172 8.38469e+21 5.57582e-05 30.3434 -1.04616 -1.01965 
0.005625 0.00103125 1.79463 7.93473e+21 5.27659e-05 35.9384 3.90425 2.33024 
0.004125 0.00121875 1.9901 1.03078e+22 6.85469e-05 23.9774 -1.1922 1.3642 
0.004875 0.00121875 1.91561 9.33274e+21 6.20627e-05 28.2708 0.161333 2.20386 
0.005625 0.00121875 1.86377 7.42904e+21 4.94031e-05 28.0815 0.57979 0.652352 
0.005625 0.00140625 2.05232 7.60548e+21 5.05765e-05 23.5116 -0.275979 -0.204494 
0.025875 0.00421875 2.01876 2.88123e+21 1.91602e-05 0.217617 1.05983 -0.572625 
0.025875 0.00440625 2.01452 2.6302e+21 1.74908e-05 2.34244 -0.617757 -0.432424 
0.027375 0.00515625 1.97135 2.71295e+21 1.80411e-05 -0.098714 0.113039 0.814259 
0.024375 0.0216562 1.9172 2.72167e+21 1.80991e-05 1.69212 1.66285 -1.22793 
0.025125 0.0216562 2.08962 2.62153e+21 1.74331e-05 -0.877273 0.837516 -0.0982341 
0.025875 0.0216562 2.03502 2.73955e+21 1.8218e-05 1.07914 -4.7189 -1.92625 
0.026625 0.0216562 2.02294 2.6108e+21 1.73618e-05 -0.414509 1.53953 -1.42037 
0.027375 0.0216562 2.04387 2.78247e+21 1.85034e-05 0.177757 -2.90373 1.5022 
0.028125 0.0216562 1.93013 2.8683e+21 1.90742e-05 1.13905 -1.4616 1.54931 
0.028875 0.0216562 2.10374 2.84684e+21 1.89315e-05 0.31878 1.16269 1.76572 
0.029625 0.0216562 1.96523 2.72524e+21 1.81229e-05 0.804397 -1.13343 2.38783 
0.006375 0.00084375 1.72185 6.00927e+21 3.99617e-05 49.798 7.22236 -2.73237 
0.007125 0.00084375 1.8085 4.92277e+21 3.27364e-05 48.31 3.52126 -0.65073 
0.006375 0.00103125 1.88385 5.89343e+21 3.91913e-05 43.1209 5.13474 -2.27243 
0.007125 0.00103125 1.78919 4.79595e+21 3.18931e-05 40.5585 10.4202 -0.790411 
0.006375 0.00121875 1.85302 5.74822e+21 3.82257e-05 39.018 9.47143 -0.032055 
0.007125 0.00121875 1.94819 4.6803e+21 3.1124e-05 36.7215 20.2116 -2.31174 
0.006375 0.00140625 1.82975 5.54516e+21 3.68753e-05 32.5969 7.85452 0.917066 
0.007125 0.00140625 1.90011 4.30575e+21 2.86332e-05 29.6142 20.8262 1.43695 
0.006375 0.00196875 1.91688 2.93182e+21 1.94966e-05 5.03994 9.54473 -1.20177 
0.007125 0.00196875 1.95485 3.6619e+21 2.43516e-05 11.2568 18.9402 -1.96675 
0.006375 0.00215625 1.90156 3.3461e+21 2.22516e-05 3.96378 4.8446 3.7808 
0.007125 0.00215625 1.96834 3.39071e+21 2.25482e-05 5.26503 7.82928 -0.239114 
0.007875 0.00234375 2.0535 3.70858e+21 2.46621e-05 7.7622 15.8308 0.410713 
0.008625 0.00234375 2.00289 3.87759e+21 2.5786e-05 2.74007 14.9766 -3.41881 
0.007875 0.00253125 1.92924 3.43387e+21 2.28352e-05 2.12603 14.7268 0.172629 
0.008625 0.00253125 1.95185 3.63954e+21 2.4203e-05 2.93513 16.6614 -4.38981 
0.007875 0.00271875 2.00782 3.44682e+21 2.29214e-05 -0.785733 15.0477 -0.2458 
0.008625 0.00271875 1.99112 3.69659e+21 2.45823e-05 1.44153 12.764 -0.576917 
0.007875 0.00290625 2.06837 3.76185e+21 2.50163e-05 -2.52018 13.7569 -0.893765 
0.007875 0.00309375 2.00977 3.69117e+21 2.45463e-05 -3.00343 10.8576 2.01359 
0.007875 0.00328125 1.97105 3.45265e+21 2.29601e-05 -5.92949 10.7577 -2.8331 
0.008625 0.00328125 1.98643 3.52508e+21 2.34418e-05 -3.08366 12.9017 -1.9812 
0.008625 0.00346875 1.9901 3.51399e+21 2.3368e-05 -2.15243 7.31942 1.093 
0.006375 0.00384375 1.89474 3.53333e+21 2.34966e-05 -0.836072 2.61587 1.54924 
0.006375 0.00403125 1.97858 3.2795e+21 2.18087e-05 2.15797 3.54982 0.274317 
0.006375 0.00421875 1.92326 3.29973e+21 2.19432e-05 -2.82341 2.34692 2.19087 
0.006375 0.00440625 1.95133 3.49644e+21 2.32513e-05 -0.546237 -1.10152 -0.244485 
0.006375 0.00496875 1.96166 3.37395e+21 2.24368e-05 -1.44103 6.10101 1.67651 
0.006375 0.00515625 1.95881 3.40765e+21 2.26609e-05 -2.52621 2.36588 0.89831 
0.006375 0.00553125 1.94189 3.39147e+21 2.25533e-05 0.727201 -0.418735 -1.41745 
0.006375 0.00609375 1.84684 3.25949e+21 2.16756e-05 0.562441 2.08434 -4.82026 
0.006375 0.00628125 1.98768 3.46625e+21 2.30506e-05 -1.9219 3.50986 2.4732 
0.006375 0.00665625 1.92225 3.12432e+21 2.07767e-05 -2.52638 3.65651 -2.40677 
0.006375 0.00684375 1.90321 3.28368e+21 2.18365e-05 0.0377996 8.22548 -1.8307 
0.006375 0.00703125 2.03371 3.15688e+21 2.09932e-05 -3.27885 1.54213 2.79764 
0.010125 0.00946875 2.00412 2.97531e+21 1.97858e-05 1.53815 4.4508 3.03114 
0.010875 0.00946875 1.82683 2.91375e+21 1.93764e-05 2.62702 1.2129 -0.291468 
0.011625 0.00946875 2.09562 2.60596e+21 1.73296e-05 6.78573 1.45431 -8.10867 
0.016875 0.00421875 1.94856 2.78197e+21 1.85001e-05 -1.42586 0.07718 1.29575 
0.017625 0.00421875 2.04543 2.73636e+21 1.81968e-05 0.0451722 0.472007 -2.32381 
0.017625 0.00440625 1.95365 2.8665e+21 1.90623e-05 -2.09125 -0.897539 -1.80518 
0.014625 0.00459375 1.91835 2.73965e+21 1.82187e-05 1.00241 0.705359 2.20588 
0.013875 0.00478125 2.02758 2.62274e+21 1.74412e-05 -0.722774 -2.4153 0.602538 
0.012375 0.00946875 2.07898 2.93395e+21 1.95108e-05 -3.03931 -3.16365 -2.75733 
0.018375 0.0169687 0 0 0 0 0 0 
0.018375 0.0171562 0 0 0 0 0 0 
0.018375 0.0184687 0 0 0 0 0 0 
0.018375 0.0186562 0 0 0 0 0 0 
0.018375 0.0188437 0 0 0 0 0 0 
0.018375 0.0190312 0 0 0 0 0 0 
0.018375 0.0195938 0 0 0 0 0 0 
0.018375 0.0197812 0 0 0 0 0 0 
0.018375 0.0207187 0 0 0 0 0 0 
0.018375 0.0209062 0 0 0 0 0 0 
0.018375 0.0210937 0 0 0 0 0 0 
0.018375 0.0212812 0 0 0 0 0 0 
0.019875 0.0216562 1.97493 2.86472e+21 1.90504e-05 0.346463 1.20688 -0.608374 
0.020625 0.0216562 1.91388 2.83611e+21 1.88601e-05 -0.330512 0.637424 2.57463 
0.021375 0.0216562 1.95099 2.76816e+21 1.84083e-05 1.52338 -0.501298 -1.65078 
0.022125 0.0216562 2.1017 2.65371e+21 1.76472e-05 0.41826 0.561565 -0.595857 
0.022875 0.0216562 1.92971 2.83611e+21 1.88601e-05 -3.4627 -1.11107 5.99765 
0.023625 0.0216562 2.04963 2.65371e+21 1.76472e-05 -0.0834689 -1.26356 0.328923 
0.01125 0.0024375 0 0 0 0 0 0 
0.01125 0.0028125 0 0 0 0 0 0 
0.02175 0.0009375 2.02152 2.82489e+21 1.87855e-05 0.199695 0.0654825 2.12592 
0.02325 0.0009375 1.98835 2.81584e+21 1.87253e-05 -0.64793 -0.847994 -0.434565 
0.004875 0.00046875 1.96048 8.95757e+21 5.95678e-05 40.1593 -0.20318 -2.28347 
0.005625 0.00046875 1.70171 7.70206e+21 5.12187e-05 51.3517 2.55657 -2.67577 
0.004875 0.00065625 1.94261 9.20936e+21 6.12423e-05 36.2718 -0.0319823 -1.3514 
0.005625 0.00065625 1.8281 8.22634e+21 5.47052e-05 44.4163 -0.783402 2.06046 
0.028875 0.00421875 1.96988 2.60491e+21 1.73227e-05 -1.4948 -1.18989 1.77152 
0.029625 0.00421875 1.99911 2.76856e+21 1.84109e-05 0.225092 -1.30044 1.02251 
0.025875 0.00496875 1.99177 2.83811e+21 1.88734e-05 2.36101 -1.25325 0.848803 
0.028125 0.00459375 1.99959 2.79632e+21 1.85955e-05 -0.0447783 3.06612 -1.58025 
0.028125 0.00478125 1.99718 2.79081e+21 1.85589e-05 0.0991721 -0.261644 0.169647 
0.027375 0.00534375 2.00245 2.82955e+21 1.88165e-05 -0.312096 -1.58423 0.408981 
0.028875 0.00553125 2.009 2.83799e+21 1.88726e-05 1.73341 -0.30614 3.52699 
0.007875 0.00121875 1.92441 4.0674e+21 2.70482e-05 28.5286 12.6183 1.46995 
0.008625 0.00121875 1.9513 4.03026e+21 2.68012e-05 10.4704 12.7428 -0.806278 
0.007875 0.00140625 1.96167 4.2977e+21 2.85797e-05 18.0513 17.9466 -0.925627 
0.008625 0.00140625 2.02776 3.8953e+21 2.59037e-05 11.4532 14.1463 1.2644 
0.007875 0.00159375 1.96865 3.8702e+21 2.57369e-05 10.8075 15.9538 2.21376 
0.008625 0.00159375 2.01228 3.8631e+21 2.56896e-05 7.81773 8.91076 0.584101 
0.007875 0.00178125 2.0008 3.98383e+21 2.64924e-05 10.5873 13.5516 0.507366 
0.008625 0.00178125 1.87986 4.05372e+21 2.69572e-05 5.8882 15.113 -1.28692 
0.006375 0.00309375 2.001 3.57364e+21 2.37647e-05 1.05714 2.27628 0.195939 
0.007125 0.00309375 2.08264 3.31437e+21 2.20405e-05 0.161029 6.21342 -3.33145 
0.006375 0.00328125 2.16272 3.3565e+21 2.23207e-05 -0.928071 0.835915 -1.8286 
0.006375 0.00346875 1.87911 3.21178e+21 2.13583e-05 -0.70001 5.34401 -0.667828 
0.006375 0.00365625 1.91267 3.41852e+21 2.27332e-05 -0.939813 3.49549 -1.97381 
0.007125 0.00365625 1.96982 3.57832e+21 2.37958e-05 -1.13931 6.07958 -2.91476 
0.006375 0.00459375 2.01149 3.43226e+21 2.28245e-05 -3.15501 8.20854 5.08863 
0.006375 0.00478125 2.095 3.27547e+21 2.17819e-05 1.8836 3.41577 -0.852963 
0.006375 0.00571875 1.94317 3.19493e+21 2.12463e-05 -1.00147 4.94598 0.029133 
0.010125 0.00834375 0 0 0 0 0 0 
0.010125 0.00853125 0 0 0 0 0 0 
0.010125 0.00871875 0 0 0 0 0 0 
0.010125 0.00890625 0 0 0 0 0 0 
0.014625 0.00515625 1.97555 2.8666e+21 1.90629e-05 0.591147 -0.67597 -1.23537 
0.012375 0.00909375 1.93964 2.96827e+21 1.9739e-05 -2.58381 -6.50096 -1.27328 
0.012375 0.00928125 2.16507 3.09121e+21 2.05566e-05 6.2673 1.95657 0.281254 
0.022875 0.00403125 2.0153 2.88048e+21 1.91552e-05 -0.0125048 -1.23492 1.06735 
0.023625 0.00403125 1.92258 2.87767e+21 1.91365e-05 2.33072 2.05191 -0.537447 
0.021375 0.00421875 2.00573 2.66661e+21 1.7733e-05 -0.384598 -4.68212 -0.224837 
0.021375 0.00440625 2.01951 2.71496e+21 1.80545e-05 -1.1123 2.39154 -1.5756 
0.022125 0.00440625 2.00174 2.76119e+21 1.83619e-05 -0.811775 -0.901441 2.61892 
0.019875 0.00459375 1.94605 2.86284e+21 1.90379e-05 1.89274 -3.94086 -0.465883 
0.022875 0.00459375 1.966 2.83327e+21 1.88413e-05 2.66915 0.911969 1.41572 
0.022875 0.00478125 2.0528 2.91153e+21 1.93617e-05 3.49456 2.67735 -3.29694 
0.018375 0.0154687 0 0 0 0 0 0 
0.018375 0.0156563 0 0 0 0 0 0 
0.018375 0.0173437 0 0 0 0 0 0 
0.018375 0.0175312 0 0 0 0 0 0 
0.018375 0.0180937 0 0 0 0 0 0 
0.018375 0.0182812 0 0 0 0 0 0 
0.018375 0.0192187 0 0 0 0 0 0 
0.018375 0.0194062 0 0 0 0 0 0 
0.018375 0.0199687 0 0 0 0 0 0 
0.018375 0.0201562 0 0 0 0 0 0 
0.018375 0.0203437 0 0 0 0 0 0 
0.018375 0.0205312 0 0 0 0 0 0 
0.01275 0.0009375 2.01286 2.76717e+21 1.84017e-05 3.39196 -0.0724826 -5.02828 
0.01275 0.0013125 2.15242 2.6354e+21 1.75254e-05 -4.39325 -2.80275 0.383558 
0.010125 0.00684375 0 0 0 0 0 0 
0.010125 0.00703125 0 0 0 0 0 0 
0.013875 0.00309375 2.00941 2.751e+21 1.82941e-05 -0.509626 3.05502 -2.5468 
0.014625 0.00309375 1.91382 2.63393e+21 1.75157e-05 1.73386 0.459743 -0.815077 
0.013875 0.00328125 1.96057 2.64554e+21 1.75928e-05 -2.64169 -0.864467 -2.02328 
0.014625 0.00328125 1.9838 2.74211e+21 1.82351e-05 -2.51282 0.751243 -0.0379937 
0.013875 0.00421875 1.9545 2.7471e+21 1.82682e-05 -3.30039 0.785969 -2.33134 
0.014625 0.00440625 1.90974 2.74065e+21 1.82253e-05 -1.85685 -3.19074 1.49597 
0.0294375 0.0107344 1.99188 2.74128e+21 1.82295e-05 -0.97681 -0.188063 1.07073 
0.0298125 0.0107344 2.00663 2.99433e+21 1.99123e-05 4.54396 -2.14684 0.348049 
0.0294375 0.0108281 1.96228 2.84298e+21 1.89058e-05 -0.163616 -0.200014 2.50669 
0.0298125 0.0108281 1.97815 2.75518e+21 1.83219e-05 -3.31747 4.6616 -1.3139 
0.0241875 0.0122344 1.94816 2.96023e+21 1.96855e-05 3.82666 0.542491 -0.401738 
0.0245625 0.0122344 2.03356 2.67901e+21 1.78154e-05 3.25289 3.18238 -1.43971 
0.0241875 0.0123281 1.99472 2.65497e+21 1.76555e-05 1.24718 2.6142 -0.891412 
0.0245625 0.0123281 2.08704 2.72841e+21 1.81439e-05 -2.14373 1.4703 2.72327 
0.0249375 0.0126094 1.96466 2.83629e+21 1.88613e-05 -4.06813 3.00629 -2.0095 
0.0253125 0.0126094 1.97252 2.9081e+21 1.93389e-05 4.00979 -0.127859 -5.03688 
0.0249375 0.0127031 2.04807 2.8118e+21 1.86985e-05 3.94583 -1.3337 -0.646151 
0.0256875 0.0133594 1.93131 2.66012e+21 1.76898e-05 2.54945 8.00207 1.8409 
0.0260625 0.0133594 2.01231 2.91427e+21 1.93799e-05 1.19342 -0.839702 1.47311 
0.0256875 0.0134531 1.93975 2.72234e+21 1.81036e-05 0.280287 -1.82598 -2.60394 
0.0260625 0.0134531 2.06969 2.74926e+21 1.82826e-05 -2.46869 1.48771 1.75422 
0.0279375 0.0133594 2.02924 2.68045e+21 1.7825e-05 2.95767 0.599348 0.471033 
0.0283125 0.0133594 1.97422 2.58557e+21 1.7194e-05 -1.32216 0.0306834 4.97781 
0.0279375 0.0134531 1.98775 2.57092e+21 1.70966e-05 2.82763 -2.48244 -0.676684 
0.0283125 0.0134531 1.96962 2.66177e+21 1.77008e-05 -2.19644 2.03968 -0.339 
0.0275625 0.0141094 2.02539 2.94225e+21 1.95659e-05 2.70453 4.71692 -1.51997 
0.0271875 0.0142031 1.93244 2.76027e+21 1.83558e-05 1.28532 0.703218 -2.26658 
0.0275625 0.0142031 2.04234 2.77939e+21 1.8483e-05 -0.597218 0.445573 1.19439 
0.0283125 0.0144844 1.93893 2.75981e+21 1.83527e-05 -0.159735 -3.94493 0.553437 
0.0279375 0.0145781 2.0007 2.63958e+21 1.75532e-05 -1.64009 -3.09455 1.17761 
0.0283125 0.0145781 2.04917 2.83832e+21 1.88749e-05 -6.20147 -1.53004 1.0058 
0.0294375 0.0146719 2.00511 2.83253e+21 1.88363e-05 -0.776309 -1.5616 -0.00543511 
0.0298125 0.0146719 1.91266 2.73379e+21 1.81797e-05 -0.176097 -1.77101 -0.635671 
0.0294375 0.0147656 1.9237 2.88813e+21 1.92061e-05 -0.0491211 -1.08629 -6.72655 
0.0256875 0.0150469 1.95142 2.73787e+21 1.82068e-05 0.0157456 3.25003 -1.333 
0.0260625 0.0150469 2.02671 2.84618e+21 1.89271e-05 1.559 -2.00436 -2.83348 
0.0260625 0.0151406 2.0896 2.74484e+21 1.82532e-05 0.550237 -0.195784 -5.09461 
0.0249375 0.0154219 2.07154 2.70359e+21 1.79788e-05 -1.89917 -0.242051 -0.355475 
0.0253125 0.0154219 1.96781 2.62726e+21 1.74713e-05 1.05972 2.42182 0.233191 
0.0249375 0.0155156 1.94356 2.63473e+21 1.7521e-05 1.1086 2.75359 1.48617 
0.0268125 0.0154219 2.05727 2.74175e+21 1.82326e-05 1.33545 -0.595624 -1.30347 
0.0264375 0.0155156 2.02195 2.76311e+21 1.83747e-05 -4.56204 -0.0262337 2.48456 
0.0268125 0.0155156 2.03631 2.75728e+21 1.83359e-05 -1.41823 1.69097 -1.74321 
0.0279375 0.0156094 2.08171 2.72041e+21 1.80907e-05 -0.00500317 1.3727 1.05378 
0.0283125 0.0156094 1.99647 2.84222e+21 1.89008e-05 4.01835 -1.21721 0.553143 
0.0279375 0.0157031 2.01203 2.77048e+21 1.84237e-05 5.20541 2.34805 -3.00405 
0.0256875 0.0161719 2.00314 2.68738e+21 1.78711e-05 2.70052 -1.2423 -3.50806 
0.0260625 0.0161719 2.05869 2.69577e+21 1.79269e-05 -0.663371 0.975402 -2.49947 
0.0256875 0.0162656 2.0436 2.99474e+21 1.9915e-05 3.52398 1.2305 0.273095 
0.0260625 0.0162656 1.98269 2.76373e+21 1.83788e-05 -1.02095 0.103041 -0.865089 
0.0271875 0.0163594 1.94629 2.7728e+21 1.84391e-05 -0.164684 3.68876 1.7007 
0.0275625 0.0163594 1.98228 2.72852e+21 1.81447e-05 -1.5724 2.93693 1.45221 
0.0271875 0.0164531 1.9695 2.67996e+21 1.78217e-05 2.255 0.748116 0.599689 
0.0279375 0.0163594 1.99389 2.78387e+21 1.85127e-05 -5.06783 2.31033 -1.15234 
0.0283125 0.0163594 1.98783 2.73683e+21 1.81999e-05 0.563101 -1.99105 -0.584761 
0.0279375 0.0164531 1.92237 2.99913e+21 1.99442e-05 -1.77928 1.88899 2.96164 
0.0298125 0.0161719 2.06342 2.81055e+21 1.86901e-05 1.5662 -0.149396 -1.26001 
0.0294375 0.0162656 1.9613 2.88341e+21 1.91747e-05 -3.27467 0.794697 3.06828 
0.0298125 0.0162656 2.02613 2.75538e+21 1.83233e-05 -3.59567 1.96809 2.12961 
0.0249375 0.0165469 2.04442 2.83167e+21 1.88306e-05 -0.749593 0.777273 -1.36264 
0.0253125 0.0166406 2.01768 2.79123e+21 1.85617e-05 2.59678 -3.43867 -1.34133 
0.0249375 0.0168281 1.97521 2.87581e+21 1.91241e-05 -0.872803 3.51861 -2.08321 
0.0256875 0.0169219 2.06129 2.80102e+21 1.86268e-05 4.4039 0.352466 -0.935176 
0.0260625 0.0170156 1.92935 2.60733e+21 1.73387e-05 -1.65117 1.38573 3.12328 
0.0260625 0.0171094 2.00128 2.7518e+21 1.82995e-05 -1.05877 -0.827067 2.15673 
0.0256875 0.0172031 2.02771 2.88943e+21 1.92147e-05 0.327022 1.63169 -1.35897 
0.0268125 0.0171094 1.95419 2.66448e+21 1.77188e-05 2.69034 3.60547 1.17595 
0.0268125 0.0172031 2.07238 2.78154e+21 1.84972e-05 1.16235 0.394827 -1.17757 
0.0271875 0.0165469 2.00368 2.7578e+21 1.83393e-05 5.22006 -0.956005 3.13178 
0.0275625 0.0165469 1.92599 2.81799e+21 1.87396e-05 2.28242 -1.67461 -0.723817 
0.0271875 0.0166406 1.87803 2.78579e+21 1.85255e-05 -0.822008 0.715737 1.45484 
0.0298125 0.0165469 2.00742 2.74412e+21 1.82484e-05 -0.0780072 -0.989402 -0.46856 
0.0298125 0.0166406 1.96323 2.73682e+21 1.81998e-05 3.9478 -4.74235 0.369134 
0.0286875 0.0171094 1.94325 2.73063e+21 1.81587e-05 1.17469 -0.106379 -1.4328 
0.0290625 0.0171094 2.00884 2.73328e+21 1.81763e-05 -2.70024 0.281162 -2.54892 
0.0290625 0.0172031 2.02117 2.79207e+21 1.85672e-05 -4.30099 0.335153 -1.44395 
0.0245625 0.0172969 1.99803 2.6513e+21 1.76312e-05 1.53894 -2.72185 0.786511 
0.0245625 0.0173906 1.94497 2.9598e+21 1.96827e-05 0.99729 3.31257 -0.818992 
0.0241875 0.0176719 2.01982 2.61554e+21 1.73933e-05 -1.4021 1.0633 0.0593193 
0.0245625 0.0176719 1.9884 2.58992e+21 1.7223e-05 -0.425268 -3.36787 2.17321 
0.0241875 0.0177656 2.06745 2.85656e+21 1.89961e-05 -5.68048 -0.349327 4.39264 
0.0256875 0.0178594 1.99486 2.70975e+21 1.80198e-05 -1.93496 -1.88876 -3.13777 
0.0260625 0.0178594 1.99171 2.82635e+21 1.87952e-05 2.42079 0.427208 -1.44533 
0.0256875 0.0179531 2.02825 2.73847e+21 1.82108e-05 -1.56294 1.12734 -0.306481 
0.0260625 0.0179531 2.04954 2.6729e+21 1.77748e-05 -0.816691 0.87941 -0.179889 
0.0283125 0.0176719 1.93077 2.76412e+21 1.83814e-05 1.37796 0.798477 -3.70222 
0.0241875 0.0182344 1.96402 2.75581e+21 1.83262e-05 2.50839 -6.16177 -1.08907 
0.0245625 0.0182344 1.97918 2.87498e+21 1.91186e-05 -0.706408 2.12813 -1.69625 
0.0260625 0.0182344 2.01005 2.66147e+21 1.76988e-05 1.91153 -2.80669 -1.62961 
0.0256875 0.0183281 1.97346 2.83311e+21 1.88402e-05 3.10838 4.2634 2.13741 
0.0253125 0.0184219 1.9645 2.73022e+21 1.8156e-05 -0.991595 0.403391 0.342656 
0.0249375 0.0187031 2.01538 3.00625e+21 1.99916e-05 -0.710184 1.80797 0.156146 
0.0256875 0.0184219 1.99244 2.96122e+21 1.96921e-05 -0.929868 2.66062 -0.936883 
0.0256875 0.0186094 2.02431 2.79029e+21 1.85554e-05 0.0815927 -0.569616 -2.49042 
0.0256875 0.0187031 1.95779 2.76178e+21 1.83658e-05 -2.18512 -1.93529 -0.49356 
0.0271875 0.0180469 1.99811 2.60885e+21 1.73488e-05 2.41143 0.617999 1.16138 
0.0275625 0.0181406 1.99787 2.84492e+21 1.89187e-05 -2.01308 -1.70667 1.90322 
0.0271875 0.0182344 2.05355 2.69623e+21 1.79299e-05 0.539176 1.60974 2.32045 
0.0286875 0.0180469 2.04341 2.85217e+21 1.8967e-05 2.30202 1.52398 2.5005 
0.0298125 0.0182344 1.93407 2.71857e+21 1.80785e-05 0.910019 2.69008 0.441943 
0.0290625 0.0184219 1.94931 2.68844e+21 1.78782e-05 -1.45097 -0.656101 -0.749612 
0.0290625 0.0185156 2.01511 2.73596e+21 1.81941e-05 -3.56577 -0.0817292 2.0766 
0.0294375 0.0186094 2.04898 2.70515e+21 1.79892e-05 4.0358 0.0709208 -1.35384 
0.0241875 0.0187969 2.02063 2.8901e+21 1.92192e-05 4.82693 1.99177 0.279633 
0.0245625 0.0188906 2.04893 2.76073e+21 1.83588e-05 1.09036 2.42499 2.73042 
0.0253125 0.0188906 2.0306 2.77031e+21 1.84226e-05 -2.13277 -0.00180591 -0.739834 
0.0268125 0.0189844 2.00185 2.82579e+21 1.87915e-05 0.212079 -1.35223 0.83247 
0.0264375 0.0190781 1.86254 2.72173e+21 1.80995e-05 2.476 0.00161958 -0.852111 
0.0241875 0.0191719 1.99077 2.81704e+21 1.87333e-05 2.65423 -2.51302 -2.70305 
0.0245625 0.0194531 1.98369 2.83682e+21 1.88649e-05 -0.377532 3.64189 -0.884287 
0.0253125 0.0193594 2.00359 2.82717e+21 1.88007e-05 -1.17272 2.14266 1.40318 
0.0249375 0.0194531 1.95776 2.7577e+21 1.83387e-05 -0.301004 -3.05643 -1.97291 
0.0264375 0.0191719 2.04022 2.78162e+21 1.84978e-05 2.39416 1.34745 -2.79387 
0.0286875 0.0191719 2.05479 2.73676e+21 1.81994e-05 -1.54444 0.300876 2.4767 
0.0286875 0.0193594 1.99958 2.84354e+21 1.89096e-05 -0.293075 -3.12305 0.137535 
0.0260625 0.0198281 2.03786 2.68271e+21 1.784e-05 -0.755335 0.958646 1.38322 
0.0279375 0.0195469 1.96404 2.71436e+21 1.80505e-05 0.695982 -0.598181 3.57085 
0.0283125 0.0195469 1.97974 2.77458e+21 1.84509e-05 3.14529 -1.59735 -0.731631 
0.0286875 0.0198281 2.06635 2.88363e+21 1.91761e-05 0.401112 0.431749 -0.655475 
0.0294375 0.0197344 2.08072 2.74363e+21 1.82451e-05 1.87599 2.5862 4.79815 
0.0294375 0.0198281 1.92098 2.88363e+21 1.91761e-05 1.12205 0.913841 -0.14709 
0.0298125 0.0200156 1.93299 2.65306e+21 1.76428e-05 2.22118 -0.692421 -0.456508 
0.0249375 0.0204844 1.92978 2.73821e+21 1.82091e-05 -1.78116 0.562045 0.281209 
0.0264375 0.0204844 1.99695 2.76252e+21 1.83707e-05 2.94019 -2.1266 1.45609 
0.0283125 0.0202969 2.06118 2.85718e+21 1.90002e-05 -1.92186 -0.329044 -0.215921 
0.0279375 0.0205781 2.03959 2.74553e+21 1.82578e-05 1.81761 0.945442 -1.12032 
0.0290625 0.0204844 1.97014 2.7581e+21 1.83413e-05 -3.42054 -0.198406 -1.67704 
0.0264375 0.0212344 1.95679 2.86108e+21 1.90262e-05 -4.83829 2.70285 0.986699 
0.0283125 0.0214219 2.04248 2.74517e+21 1.82554e-05 -4.5015 0.474102 0.322746 
0.0106875 0.00998437 2.04239 3.01068e+21 2.0021e-05 -0.111884 -0.62763 2.70661 
0.0110625 0.00998437 2.07253 3.06963e+21 2.0413e-05 2.03916 -3.67473 -0.948014 
0.0106875 0.0100781 1.94388 2.96471e+21 1.97153e-05 5.29492 -2.34831 4.35386 
0.0110625 0.0100781 1.97128 2.71316e+21 1.80425e-05 5.54326 -2.70964 -0.917313 
0.0099375 0.0103594 2.0433 3.02406e+21 2.011e-05 1.84279 -0.313381 -0.626291 
0.0103125 0.0103594 1.99477 2.9454e+21 1.95869e-05 7.19673 -4.22365 1.18513 
0.0099375 0.0104531 2.02624 2.90599e+21 1.93248e-05 3.07055 -2.08207 -1.29872 
0.0103125 0.0104531 2.00938 2.80205e+21 1.86336e-05 4.23762 0.785542 -2.72626 
0.0076875 0.0105469 1.96709 2.91879e+21 1.94099e-05 -0.38119 2.29089 3.94234 
0.0080625 0.0105469 2.0383 3.26647e+21 2.1722e-05 2.30232 -2.39309 -4.59266 
0.0076875 0.0106406 1.99436 3.16111e+21 2.10214e-05 2.88859 0.859392 -3.29009 
0.0080625 0.0106406 2.00796 3.17387e+21 2.11062e-05 5.77301 2.21476 -1.42675 
0.0069375 0.0111094 2.04869 3.097e+21 2.05951e-05 2.73328 4.70631 0.861485 
0.0073125 0.0111094 1.97996 3.20703e+21 2.13267e-05 0.369325 1.48893 -0.350875 
0.0069375 0.0112031 1.95791 3.18423e+21 2.11751e-05 -4.203 1.19939 -0.589325 
0.0073125 0.0112031 1.99417 2.81247e+21 1.87029e-05 0.576328 -2.03413 1.77046 
0.0076875 0.0111094 1.98134 3.1133e+21 2.07035e-05 1.55754 -2.10632 0.599415 
0.0080625 0.0111094 2.01132 3.10515e+21 2.06493e-05 2.09642 0.476967 0.205134 
0.0076875 0.0112031 2.02178 3.11554e+21 2.07183e-05 0.58268 -1.16164 1.39934 
0.0080625 0.0112031 2.01602 3.1317e+21 2.08258e-05 2.56085 3.00777 -0.454714 
0.0076875 0.0112969 1.93314 2.84122e+21 1.88941e-05 0.593022 2.51214 4.67495 
0.0080625 0.0112969 1.98871 2.92939e+21 1.94804e-05 -0.228866 1.34327 0.121165 
0.0076875 0.0113906 1.96528 3.104e+21 2.06416e-05 2.0259 1.2089 3.90188 
0.0080625 0.0113906 1.99764 3.14374e+21 2.09059e-05 -1.36274 1.93588 -1.83035 
0.0084375 0.0114844 1.95389 3.10625e+21 2.06566e-05 3.29442 -0.371613 0.0985252 
0.0088125 0.0114844 1.96863 3.055e+21 2.03158e-05 3.43796 -0.444537 2.32273 
0.0084375 0.0115781 2.01692 3.16321e+21 2.10353e-05 2.65436 1.28981 1.81871 
0.0088125 0.0115781 1.93564 2.9638e+21 1.97093e-05 5.32301 -1.96654 -1.49033 
0.0076875 0.0116719 2.05223 3.02144e+21 2.00926e-05 -2.59268 0.892373 1.73763 
0.0080625 0.0116719 1.96632 3.00593e+21 1.99894e-05 2.53646 0.715805 0.548506 
0.0076875 0.0117656 2.03687 2.91272e+21 1.93696e-05 -0.676615 2.59066 -0.392663 
0.0080625 0.0117656 2.09651 2.88578e+21 1.91905e-05 3.16346 6.08501 0.864464 
0.0076875 0.0118594 1.9414 3.05002e+21 2.02826e-05 -0.0868215 -2.807 1.05235 
0.0080625 0.0118594 2.00848 3.05384e+21 2.0308e-05 1.29616 2.69628 3.18904 
0.0076875 0.0119531 1.90919 2.97686e+21 1.97961e-05 2.22475 0.0449633 0.0111622 
0.0080625 0.0119531 1.98914 3.00716e+21 1.99976e-05 1.21829 0.798024 -3.79288 
0.0080625 0.0124219 2.02299 3.02124e+21 2.00912e-05 1.09733 -0.986035 -0.0817604 
0.0076875 0.0125156 1.89703 2.91541e+21 1.93875e-05 -0.889916 1.22073 2.27649 
0.0080625 0.0125156 2.04842 3.00584e+21 1.99888e-05 1.95021 -0.670129 -1.45115 
0.0099375 0.0120469 1.94865 3.11904e+21 2.07416e-05 -0.477802 2.2962 1.36492 
0.0103125 0.0120469 2.04535 2.81465e+21 1.87174e-05 3.13734 -1.89751 -0.627891 
0.0099375 0.0121406 2.01808 3.00546e+21 1.99863e-05 -0.00977295 -2.04754 -3.47063 
0.0103125 0.0121406 2.04998 2.93834e+21 1.954e-05 2.11239 0.480875 1.15465 
0.0196875 0.00998437 1.98131 2.80211e+21 1.8634e-05 -1.55725 -6.97969 -2.91782 
0.0200625 0.00998437 1.98993 2.96081e+21 1.96894e-05 4.5466 4.07642 0.675325 
0.0196875 0.0100781 2.00096 2.81198e+21 1.86997e-05 5.76743 2.44718 1.04683 
0.0200625 0.0100781 1.84441 2.86139e+21 1.90283e-05 4.9531 0.22348 2.43559 
0.0181875 0.0111094 2.03219 2.79138e+21 1.85627e-05 -0.83318 0.754071 -0.744631 
0.0185625 0.0111094 2.05318 2.7873e+21 1.85356e-05 1.25012 2.12119 -0.668655 
0.0181875 0.0112031 2.01821 2.78822e+21 1.85417e-05 -1.99599 -0.73581 -2.41778 
0.0185625 0.0112031 1.98918 2.78822e+21 1.85417e-05 1.9893 -1.16463 -2.02813 
0.0204375 0.0120469 2.00038 2.65306e+21 1.76429e-05 2.01288 1.46916 3.29001 
0.0208125 0.0120469 2.00267 2.80338e+21 1.86425e-05 1.39014 -4.27983 2.66438 
0.0204375 0.0121406 1.91223 2.66987e+21 1.77546e-05 -0.659594 -0.161939 -1.75993 
0.0208125 0.0121406 2.07986 2.75936e+21 1.83497e-05 1.51221 4.29014 3.30156 
0.0219375 0.0122344 1.98753 2.87513e+21 1.91196e-05 0.558056 -0.683195 -3.00851 
0.0223125 0.0122344 2.05874 2.73081e+21 1.81599e-05 0.159956 0.533913 2.7295 
0.0219375 0.0123281 1.94017 2.79818e+21 1.86079e-05 -1.57857 -1.27964 -5.78952 
0.0223125 0.0123281 1.95375 2.71739e+21 1.80707e-05 1.63773 -5.07945 1.50559 
0.0211875 0.0126094 2.007 2.80039e+21 1.86226e-05 4.24092 0.188365 -5.45417 
0.0215625 0.0126094 2.05449 2.77885e+21 1.84793e-05 0.422676 -0.674729 -1.56027 
0.0211875 0.0127031 2.01785 2.7726e+21 1.84378e-05 -1.45553 1.83461 -1.68992 
0.0215625 0.0127031 2.00371 2.73696e+21 1.82008e-05 3.24108 -0.0815434 -3.65112 
0.0196875 0.0141094 1.9227 2.79786e+21 1.86058e-05 -5.46782 5.6531 -0.694037 
0.0200625 0.0141094 1.87197 2.71444e+21 1.8051e-05 2.97084 -3.54648 -0.275092 
0.0196875 0.0142031 2.03306 2.71565e+21 1.80591e-05 -1.51785 5.38991 1.26814 
0.0200625 0.0142031 2.08918 2.7539e+21 1.83134e-05 0.0574601 -0.193729 0.613639 
0.0234375 0.0154219 1.91829 2.77404e+21 1.84473e-05 -2.08486 -0.139233 2.98259 
0.0238125 0.0154219 1.93945 2.82394e+21 1.87792e-05 -4.70584 -2.22023 0.535792 
0.0234375 0.0155156 1.9289 2.62306e+21 1.74433e-05 -0.448047 2.55599 1.5615 
0.0238125 0.0155156 1.99402 2.66682e+21 1.77344e-05 2.09914 -2.51033 0.902226 
0.0234375 0.0156094 2.03664 2.75522e+21 1.83222e-05 2.12455 0.36428 -0.60383 
0.0238125 0.0156094 1.9821 2.68271e+21 1.784e-05 3.03634 0.118987 -0.202964 
0.0234375 0.0157031 1.90381 2.85985e+21 1.9018e-05 -0.612397 -2.2243 1.05729 
0.0238125 0.0157031 1.9902 2.69841e+21 1.79444e-05 -1.7055 2.75676 4.06963 
0.0238125 0.0157969 1.94918 2.73398e+21 1.81809e-05 7.20348 0.614396 -2.68098 
0.0234375 0.0158906 2.00977 2.81186e+21 1.86989e-05 0.880389 -0.834305 -2.25896 
0.0238125 0.0158906 1.99108 2.74064e+21 1.82252e-05 0.339274 -2.501 2.32368 
0.0211875 0.0161719 1.95677 2.93652e+21 1.95278e-05 -0.526896 1.73743 -0.111062 
0.0211875 0.0162656 1.9549 2.74703e+21 1.82678e-05 1.04945 -0.0316837 -0.587434 
0.0230625 0.0161719 1.97079 2.85254e+21 1.89694e-05 -0.856149 -3.05393 1.75062 
0.0230625 0.0162656 1.98736 2.81105e+21 1.86935e-05 -2.97833 2.85152 1.33781 