ITEM: TIMESTEP
1100000
ITEM: NUMBER OF SURFS
93
ITEM: BOX BOUNDS oo ao pp
0 0.35
0 0.03
-0.1 0.1
ITEM: SURFS id v1x v1y v2x v2y f_collisions[1] f_collisions[2] 
1 0.00079 0.00159 0.00079 0.00000 0.00000 0.00000 
25 0.05652 0.00802 0.05652 0.01254 0.02028 0.00000 
49 0.00000 0.00423 0.00000 0.00847 0.00000 0.00000 
73 0.08070 0.00072 0.08070 0.00115 0.00001 0.00000 
2 0.00318 0.00159 0.00079 0.00159 0.00000 0.00000 
26 0.05652 0.00350 0.05652 0.00802 0.01488 0.00000 
50 0.00000 0.00000 0.00000 0.00423 0.00000 0.00000 
74 0.08112 0.00135 0.08070 0.00135 0.00000 0.00000 
3 0.00318 0.00529 0.00318 0.00159 0.00011 0.00000 
27 0.05810 0.00350 0.05652 0.00350 0.00144 0.00000 
51 0.00079 0.00000 0.00000 0.00000 0.00000 0.00000 
75 0.08112 0.00177 0.08112 0.00135 0.00000 0.00000 
4 0.00318 0.00900 0.00318 0.00529 0.00153 0.00000 
28 0.05810 0.00788 0.05810 0.00350 0.00043 0.00000 
52 0.00714 0.00079 0.00714 0.00000 0.00007 0.00000 
76 0.08070 0.00177 0.08112 0.00177 0.00000 0.00000 
5 0.00318 0.01270 0.00318 0.00900 0.00662 0.00000 
29 0.05810 0.01226 0.05810 0.00788 0.00066 0.00000 
53 0.00953 0.00079 0.00714 0.00079 0.00059 0.00000 
77 0.08070 0.00135 0.08070 0.00177 0.00003 0.00000 
6 0.00672 0.01270 0.00318 0.01270 0.00881 0.00000 
30 0.05810 0.01664 0.05810 0.01226 0.00028 0.00000 
54 0.00953 0.00516 0.00953 0.00079 0.01750 0.00000 
78 0.08112 0.00197 0.08070 0.00197 0.00001 0.00000 
7 0.01027 0.01270 0.00672 0.01270 0.02362 0.00000 
31 0.05810 0.02102 0.05810 0.01664 0.00012 0.00000 
55 0.00953 0.00953 0.00953 0.00516 0.04002 0.00000 
79 0.08112 0.00240 0.08112 0.00197 0.00000 0.00000 
8 0.01027 0.01714 0.01027 0.01270 0.07201 0.00000 
32 0.05810 0.02540 0.05810 0.02102 0.00002 0.00000 
56 0.00635 0.00953 0.00953 0.00953 0.01305 0.00000 
80 0.08070 0.00240 0.08112 0.00240 0.00000 0.00000 
9 0.01027 0.02159 0.01027 0.01714 0.07168 0.00000 
33 0.05326 0.02540 0.05810 0.02540 0.00000 0.00000 
57 0.00635 0.00476 0.00635 0.00953 0.00176 0.00000 
81 0.08070 0.00197 0.08070 0.00240 0.00000 0.00000 
10 0.01504 0.02159 0.01027 0.02159 0.07665 0.00000 
34 0.04842 0.02540 0.05326 0.02540 0.00000 0.00000 
58 0.00635 0.00000 0.00635 0.00476 0.00006 0.00000 
82 0.08112 0.00260 0.08070 0.00260 0.00002 0.00000 
11 0.01981 0.02159 0.01504 0.02159 0.08601 0.00000 
35 0.04358 0.02540 0.04842 0.02540 0.00000 0.00000 
59 0.00714 0.00000 0.00635 0.00000 0.00000 0.00000 
83 0.08112 0.00302 0.08112 0.00260 0.00000 0.00000 
12 0.01899 0.02412 0.01981 0.02159 0.00000 0.00000 
36 0.03873 0.02540 0.04358 0.02540 0.00000 0.00000 
60 0.08010 0.01270 0.06010 0.01270 0.00536 0.00000 
84 0.08070 0.00302 0.08112 0.00302 0.00000 0.00000 
13 0.02050 0.02461 0.01899 0.02412 0.00000 0.00000 
37 0.03389 0.02540 0.03873 0.02540 0.00000 0.00000 
61 0.08010 0.00450 0.08010 0.01270 0.00111 0.00000 
85 0.08070 0.00260 0.08070 0.00302 0.00003 0.00000 
14 0.02148 0.02159 0.02050 0.02461 0.00000 0.00000 
38 0.02905 0.02540 0.03389 0.02540 0.00000 0.00000 
62 0.08070 0.00450 0.08010 0.00450 0.00003 0.00000 
86 0.08112 0.00322 0.08070 0.00322 0.00000 0.00000 
15 0.02586 0.02159 0.02148 0.02159 0.09243 0.00000 
39 0.02421 0.02540 0.02905 0.02540 0.00000 0.00000 
63 0.08070 0.02223 0.08070 0.00450 0.00000 0.00000 
87 0.08112 0.00364 0.08112 0.00322 0.00000 0.00000 
16 0.03024 0.02159 0.02586 0.02159 0.09214 0.00000 
40 0.01937 0.02540 0.02421 0.02540 0.00000 0.00000 
64 0.06010 0.02223 0.08070 0.02223 0.00000 0.00000 
88 0.08070 0.00364 0.08112 0.00364 0.00001 0.00000 
17 0.03462 0.02159 0.03024 0.02159 0.08339 0.00000 
41 0.01452 0.02540 0.01937 0.02540 0.00000 0.00000 
65 0.06010 0.01270 0.06010 0.02223 0.00018 0.00000 
89 0.08070 0.00322 0.08070 0.00364 0.00002 0.00000 
18 0.03900 0.02159 0.03462 0.02159 0.07202 0.00000 
42 0.00968 0.02540 0.01452 0.02540 0.00000 0.00000 
66 0.08112 0.00010 0.08070 0.00010 0.00000 0.00000 
90 0.08112 0.00384 0.08070 0.00384 0.00002 0.00000 
19 0.04338 0.02159 0.03900 0.02159 0.05947 0.00000 
43 0.00484 0.02540 0.00968 0.02540 0.00000 0.00000 
67 0.08112 0.00052 0.08112 0.00010 0.00000 0.00000 
91 0.08112 0.00427 0.08112 0.00384 0.00000 0.00000 
20 0.04776 0.02159 0.04338 0.02159 0.04482 0.00000 
44 0.00000 0.02540 0.00484 0.02540 0.00000 0.00000 
68 0.08070 0.00052 0.08112 0.00052 0.00000 0.00000 
92 0.08070 0.00427 0.08112 0.00427 0.00000 0.00000 
21 0.05214 0.02159 0.04776 0.02159 0.03139 0.00000 
45 0.00000 0.02117 0.00000 0.02540 0.00000 0.00000 
69 0.08070 0.00010 0.08070 0.00052 0.00000 0.00000 
93 0.08070 0.00384 0.08070 0.00427 0.00005 0.00000 
22 0.05652 0.02159 0.05214 0.02159 0.01905 0.00000 
46 0.00000 0.01693 0.00000 0.02117 0.00000 0.00000 
70 0.08112 0.00072 0.08070 0.00072 0.00000 0.00000 
23 0.05652 0.01707 0.05652 0.02159 0.01735 0.00000 
47 0.00000 0.01270 0.00000 0.01693 0.00000 0.00000 
71 0.08112 0.00115 0.08112 0.00072 0.00000 0.00000 
24 0.05652 0.01254 0.05652 0.01707 0.02206 0.00000 
48 0.00000 0.00847 0.00000 0.01270 0.00000 0.00000 
72 0.08070 0.00115 0.08112 0.00115 0.00000 0.00000 
ITEM: TIMESTEP
1200000
ITEM: NUMBER OF SURFS
93
ITEM: BOX BOUNDS oo ao pp
0 0.35
0 0.03
-0.1 0.1
ITEM: SURFS id v1x v1y v2x v2y f_collisions[1] f_collisions[2] 
1 0.00079 0.00159 0.00079 0.00000 0.00000 0.00000 
25 0.05652 0.00802 0.05652 0.01254 0.02073 0.00000 
49 0.00000 0.00423 0.00000 0.00847 0.00000 0.00000 
73 0.08070 0.00072 0.08070 0.00115 0.00003 0.00000 
2 0.00318 0.00159 0.00079 0.00159 0.00000 0.00000 
26 0.05652 0.00350 0.05652 0.00802 0.01420 0.00000 
50 0.00000 0.00000 0.00000 0.00423 0.00000 0.00000 
74 0.08112 0.00135 0.08070 0.00135 0.00000 0.00000 
3 0.00318 0.00529 0.00318 0.00159 0.00013 0.00000 
27 0.05810 0.00350 0.05652 0.00350 0.00140 0.00000 
51 0.00079 0.00000 0.00000 0.00000 0.00000 0.00000 
75 0.08112 0.00177 0.08112 0.00135 0.00000 0.00000 
4 0.00318 0.00900 0.00318 0.00529 0.00163 0.00000 
28 0.05810 0.00788 0.05810 0.00350 0.00031 0.00000 
52 0.00714 0.00079 0.00714 0.00000 0.00004 0.00000 
76 0.08070 0.00177 0.08112 0.00177 0.00000 0.00000 
5 0.00318 0.01270 0.00318 0.00900 0.00654 0.00000 
29 0.05810 0.01226 0.05810 0.00788 0.00069 0.00000 
53 0.00953 0.00079 0.00714 0.00079 0.00053 0.00000 
77 0.08070 0.00135 0.08070 0.00177 0.00002 0.00000 
6 0.00672 0.01270 0.00318 0.01270 0.00945 0.00000 
30 0.05810 0.01664 0.05810 0.01226 0.00035 0.00000 
54 0.00953 0.00516 0.00953 0.00079 0.01758 0.00000 
78 0.08112 0.00197 0.08070 0.00197 0.00000 0.00000 
7 0.01027 0.01270 0.00672 0.01270 0.02392 0.00000 
31 0.05810 0.02102 0.05810 0.01664 0.00005 0.00000 
55 0.00953 0.00953 0.00953 0.00516 0.04048 0.00000 
79 0.08112 0.00240 0.08112 0.00197 0.00000 0.00000 
8 0.01027 0.01714 0.01027 0.01270 0.07344 0.00000 
32 0.05810 0.02540 0.05810 0.02102 0.00003 0.00000 
56 0.00635 0.00953 0.00953 0.00953 0.01338 0.00000 
80 0.08070 0.00240 0.08112 0.00240 0.00001 0.00000 
9 0.01027 0.02159 0.01027 0.01714 0.07071 0.00000 
33 0.05326 0.02540 0.05810 0.02540 0.00000 0.00000 
57 0.00635 0.00476 0.00635 0.00953 0.00179 0.00000 
81 0.08070 0.00197 0.08070 0.00240 0.00000 0.00000 
10 0.01504 0.02159 0.01027 0.02159 0.07708 0.00000 
34 0.04842 0.02540 0.05326 0.02540 0.00000 0.00000 
58 0.00635 0.00000 0.00635 0.00476 0.00003 0.00000 
82 0.08112 0.00260 0.08070 0.00260 0.00001 0.00000 
11 0.01981 0.02159 0.01504 0.02159 0.08408 0.00000 
35 0.04358 0.02540 0.04842 0.02540 0.00000 0.00000 
59 0.00714 0.00000 0.00635 0.00000 0.00000 0.00000 
83 0.08112 0.00302 0.08112 0.00260 0.00000 0.00000 
12 0.01899 0.02412 0.01981 0.02159 0.00000 0.00000 
36 0.03873 0.02540 0.04358 0.02540 0.00000 0.00000 
60 0.08010 0.01270 0.06010 0.01270 0.00525 0.00000 
84 0.08070 0.00302 0.08112 0.00302 0.00002 0.00000 
13 0.02050 0.02461 0.01899 0.02412 0.00000 0.00000 
37 0.03389 0.02540 0.03873 0.02540 0.00000 0.00000 
61 0.08010 0.00450 0.08010 0.01270 0.00115 0.00000 
85 0.08070 0.00260 0.08070 0.00302 0.00004 0.00000 
14 0.02148 0.02159 0.02050 0.02461 0.00000 0.00000 
38 0.02905 0.02540 0.03389 0.02540 0.00000 0.00000 
62 0.08070 0.00450 0.08010 0.00450 0.00006 0.00000 
86 0.08112 0.00322 0.08070 0.00322 0.00001 0.00000 
15 0.02586 0.02159 0.02148 0.02159 0.09025 0.00000 
39 0.02421 0.02540 0.02905 0.02540 0.00000 0.00000 
63 0.08070 0.02223 0.08070 0.00450 0.00000 0.00000 
87 0.08112 0.00364 0.08112 0.00322 0.00000 0.00000 
16 0.03024 0.02159 0.02586 0.02159 0.09153 0.00000 
40 0.01937 0.02540 0.02421 0.02540 0.00000 0.00000 
64 0.06010 0.02223 0.08070 0.02223 0.00000 0.00000 
88 0.08070 0.00364 0.08112 0.00364 0.00001 0.00000 
17 0.03462 0.02159 0.03024 0.02159 0.08383 0.00000 
41 0.01452 0.02540 0.01937 0.02540 0.00000 0.00000 
65 0.06010 0.01270 0.06010 0.02223 0.00027 0.00000 
89 0.08070 0.00322 0.08070 0.00364 0.00004 0.00000 
18 0.03900 0.02159 0.03462 0.02159 0.07369 0.00000 
42 0.00968 0.02540 0.01452 0.02540 0.00000 0.00000 
66 0.08112 0.00010 0.08070 0.00010 0.00000 0.00000 
90 0.08112 0.00384 0.08070 0.00384 0.00001 0.00000 
19 0.04338 0.02159 0.03900 0.02159 0.05981 0.00000 
43 0.00484 0.02540 0.00968 0.02540 0.00000 0.00000 
67 0.08112 0.00052 0.08112 0.00010 0.00000 0.00000 
91 0.08112 0.00427 0.08112 0.00384 0.00000 0.00000 
20 0.04776 0.02159 0.04338 0.02159 0.04413 0.00000 
44 0.00000 0.02540 0.00484 0.02540 0.00000 0.00000 
68 0.08070 0.00052 0.08112 0.00052 0.00000 0.00000 
92 0.08070 0.00427 0.08112 0.00427 0.00002 0.00000 
21 0.05214 0.02159 0.04776 0.02159 0.03223 0.00000 
45 0.00000 0.02117 0.00000 0.02540 0.00000 0.00000 
69 0.08070 0.00010 0.08070 0.00052 0.00000 0.00000 
93 0.08070 0.00384 0.08070 0.00427 0.00007 0.00000 
22 0.05652 0.02159 0.05214 0.02159 0.01897 0.00000 
46 0.00000 0.01693 0.00000 0.02117 0.00000 0.00000 
70 0.08112 0.00072 0.08070 0.00072 0.00000 0.00000 
23 0.05652 0.01707 0.05652 0.02159 0.01785 0.00000 
47 0.00000 0.01270 0.00000 0.01693 0.00000 0.00000 
71 0.08112 0.00115 0.08112 0.00072 0.00000 0.00000 
24 0.05652 0.01254 0.05652 0.01707 0.02202 0.00000 
48 0.00000 0.00847 0.00000 0.01270 0.00000 0.00000 
72 0.08070 0.00115 0.08112 0.00115 0.00000 0.00000 
