ITEM: TIMESTEP
2600000
ITEM: NUMBER OF SURFS
38
ITEM: BOX BOUNDS oo ao pp
0 0.35
0 0.03
-0.1 0.1
ITEM: SURFS id v1x v1y v2x v2y 
1 0.00635 0.00159 0.00318 0.00159 
33 0.08069 0.00326 0.08117 0.00326 
2 0.00635 0.0127 0.00635 0.00159 
34 0.08069 0.00278 0.08069 0.00326 
3 0.01905 0.0127 0.00635 0.0127 
35 0.08117 0.00399 0.08069 0.00399 
4 0.01905 0.02159 0.01905 0.0127 
36 0.08117 0.00447 0.08117 0.00399 
5 0.0635 0.02159 0.01905 0.02159 
37 0.08069 0.00447 0.08117 0.00447 
6 0.0635 0.0035 0.0635 0.02159 
38 0.08069 0.00399 0.08069 0.00447 
7 0.06509 0.0035 0.0635 0.0035 
8 0.06509 0.0254 0.06509 0.0035 
9 0 0.0254 0.06509 0.0254 
10 0 0 0 0.0254 
11 0.00318 0 0 0 
12 0.00318 0.00159 0.00318 0 
13 0.00953 0 0.00953 0.00953 
14 0.00953 0.00953 0.0127 0.00953 
15 0.0127 0.00953 0.0127 0 
16 0.0127 0 0.00953 0 
17 0.08009 0.0127 0.06809 0.0127 
18 0.08009 0.0045 0.08009 0.0127 
19 0.08069 0.0045 0.08009 0.0045 
20 0.08069 0.02223 0.08069 0.0045 
21 0.06809 0.02223 0.08069 0.02223 
22 0.06809 0.0127 0.06809 0.02223 
23 0.08117 0.00036 0.08069 0.00036 
24 0.08117 0.00084 0.08117 0.00036 
25 0.08069 0.00084 0.08117 0.00084 
26 0.08069 0.00036 0.08069 0.00084 
27 0.08117 0.00157 0.08069 0.00157 
28 0.08117 0.00205 0.08117 0.00157 
29 0.08069 0.00205 0.08117 0.00205 
30 0.08069 0.00157 0.08069 0.00205 
31 0.08117 0.00278 0.08069 0.00278 
32 0.08117 0.00326 0.08117 0.00278 
