ITEM: TIMESTEP
500000
ITEM: NUMBER OF CELLS
44218
ITEM: BOX BOUNDS oo ao pp
0 0.12
0 0.03
-0.1 0.1
ITEM: CELLS xc yc f_out[1] f_out[2] f_out[3] f_out[4] f_out[5] f_out[6] 
0.003 0.00375 0 0 0 0 0 0 
0.003 0.00525 0 0 0 0 0 0 
0.003 0.00675 0 0 0 0 0 0 
0.003 0.00825 0 0 0 0 0 0 
0.003 0.00975 0 0 0 0 0 0 
0.003 0.01125 0 0 0 0 0 0 
0.003 0.01275 0 0 0 0 0 0 
0.003 0.01425 0 0 0 0 0 0 
0.003 0.01575 0 0 0 0 0 0 
0.003 0.01725 0 0 0 0 0 0 
0.003 0.01875 0 0 0 0 0 0 
0.003 0.02025 0 0 0 0 0 0 
0.003 0.02175 0 0 0 0 0 0 
0.003 0.02325 0 0 0 0 0 0 
0.027 0.02325 0 0 0 0 0 0 
0.003 0.02475 0 0 0 0 0 0 
0.027 0.02475 0 0 0 0 0 0 
0.003 0.02625 0 0 0 0 0 0 
0.027 0.02625 0 0 0 0 0 0 
0.003 0.02775 0 0 0 0 0 0 
0.027 0.02775 0 0 0 0 0 0 
0.003 0.02925 0 0 0 0 0 0 
0.027 0.02925 0 0 0 0 0 0 
0.009 0.01425 0 0 0 0 0 0 
0.009 0.01575 0 0 0 0 0 0 
0.009 0.01725 0 0 0 0 0 0 
0.009 0.01875 0 0 0 0 0 0 
0.009 0.02025 0 0 0 0 0 0 
0.009 0.02175 0 0 0 0 0 0 
0.009 0.02325 0 0 0 0 0 0 
0.009 0.02475 0 0 0 0 0 0 
0.009 0.02625 0 0 0 0 0 0 
0.009 0.02775 0 0 0 0 0 0 
0.009 0.02925 0 0 0 0 0 0 
0.015 0.01425 0 0 0 0 0 0 
0.015 0.01575 0 0 0 0 0 0 
0.015 0.01725 0 0 0 0 0 0 
0.015 0.01875 0 0 0 0 0 0 
0.015 0.02025 0 0 0 0 0 0 
0.015 0.02175 0 0 0 0 0 0 
0.015 0.02325 0 0 0 0 0 0 
0.015 0.02475 0 0 0 0 0 0 
0.015 0.02625 0 0 0 0 0 0 
0.015 0.02775 0 0 0 0 0 0 
0.015 0.02925 0 0 0 0 0 0 
0.021 0.02325 0 0 0 0 0 0 
0.021 0.02475 0 0 0 0 0 0 
0.021 0.02625 0 0 0 0 0 0 
0.021 0.02775 0 0 0 0 0 0 
0.021 0.02925 0 0 0 0 0 0 
0.0015 0.000375 0 0 0 0 0 0 
0.0015 0.001125 0 0 0 0 0 0 
0.0015 0.001875 0 0 0 0 0 0 
0.0015 0.002625 0 0 0 0 0 0 
0.0045 0.002625 0 0 0 0 0 0 
0.0255 0.022125 0 0 0 0 0 0 
0.0285 0.022125 0 0 0 0 0 0 
0.0105 0.000375 2.0382 5.53072e+21 3.67793e-05 3.10421 4.53844 -0.256724 
0.0075 0.013125 0 0 0 0 0 0 
0.0105 0.013125 0 0 0 0 0 0 
0.0135 0.013125 0 0 0 0 0 0 
0.0165 0.013125 0 0 0 0 0 0 
0.0195 0.022125 0 0 0 0 0 0 
0.0225 0.022125 0 0 0 0 0 0 
0.00375 0.0001875 1.96044 1.2398e+22 8.24468e-05 32.295 0.0844987 -0.220316 
0.00525 0.0001875 1.8732 9.95956e+21 6.62311e-05 46.5204 -0.761923 2.47492 
0.00375 0.0020625 0 0 0 0 0 0 
0.00525 0.0020625 0 0 0 0 0 0 
0.00675 0.0001875 1.67609 6.86606e+21 4.56593e-05 61.9638 7.72039 -2.67511 
0.00825 0.0001875 1.82989 4.87415e+21 3.24131e-05 28.9461 7.48546 2.37794 
0.00825 0.0005625 2.03861 5.09547e+21 3.38849e-05 27.9301 6.97708 1.41255 
0.01125 0.0031875 0 0 0 0 0 0 
0.01125 0.0035625 0 0 0 0 0 0 
0.01125 0.0039375 0 0 0 0 0 0 
0.01125 0.0043125 0 0 0 0 0 0 
0.01125 0.0046875 0 0 0 0 0 0 
0.01125 0.0050625 0 0 0 0 0 0 
0.01125 0.0054375 0 0 0 0 0 0 
0.01125 0.0058125 0 0 0 0 0 0 
0.01125 0.0061875 0 0 0 0 0 0 
0.01125 0.0065625 0 0 0 0 0 0 
0.01125 0.0069375 0 0 0 0 0 0 
0.01125 0.0073125 0 0 0 0 0 0 
0.01125 0.0076875 0 0 0 0 0 0 
0.01125 0.0080625 0 0 0 0 0 0 
0.01125 0.0084375 0 0 0 0 0 0 
0.01125 0.0088125 0 0 0 0 0 0 
0.01125 0.0091875 0 0 0 0 0 0 
0.01575 0.0009375 1.96027 2.54422e+21 1.6919e-05 -2.15315 1.8418 -1.51814 
0.01725 0.0009375 2.06118 2.70719e+21 1.80028e-05 4.92748 -0.541253 -4.45909 
0.02625 0.0009375 2.11583 2.71323e+21 1.8043e-05 2.38443 0.409575 -1.46943 
0.02475 0.0013125 2.05083 2.67313e+21 1.77763e-05 -0.15974 0.343668 -1.81468 
0.02775 0.0009375 2.1277 2.71323e+21 1.8043e-05 4.48537 -2.05675 -1.32724 
0.02925 0.0009375 2.00018 2.63778e+21 1.75412e-05 2.60759 -4.2305 3.73293 
0.01125 0.0016875 0 0 0 0 0 0 
0.00975 0.0020625 2.02987 4.29024e+21 2.85301e-05 -2.14978 15.4985 -0.0193339 
0.01125 0.0020625 0 0 0 0 0 0 
0.01275 0.0016875 1.98262 2.73196e+21 1.81676e-05 -1.11262 0.694459 4.41564 
0.003375 0.00046875 1.84178 1.31206e+22 8.72518e-05 29.3871 -2.83286 0.767342 
0.004125 0.00046875 1.81614 1.23619e+22 8.22068e-05 31.1818 -2.05754 1.1702 
0.003375 0.00065625 1.98366 1.31841e+22 8.76743e-05 28.7872 -4.5331 -2.53999 
0.004125 0.00065625 1.88354 1.25551e+22 8.34913e-05 33.3948 -6.59102 -3.19227 
0.004875 0.00046875 1.82278 1.06477e+22 7.08071e-05 46.4195 -0.445461 1.90817 
0.005625 0.00046875 1.8053 9.58532e+21 6.37424e-05 45.3555 0.157664 0.241994 
0.004875 0.00065625 1.86997 1.11582e+22 7.42018e-05 41.955 -0.814262 1.24099 
0.005625 0.00065625 1.83415 9.51979e+21 6.33066e-05 50.9157 2.72467 4.03187 
0.003375 0.00084375 1.94817 1.359e+22 9.03738e-05 21.5831 -3.7241 1.96368 
0.004125 0.00084375 1.86846 1.20588e+22 8.01909e-05 34.9637 -2.38041 -1.35968 
0.004875 0.00084375 1.9108 1.03016e+22 6.85057e-05 38.3556 -2.44153 0.235256 
0.005625 0.00084375 1.86368 8.54443e+21 5.68205e-05 44.2394 2.37863 0.647938 
0.005625 0.00121875 1.95191 8.55269e+21 5.68754e-05 37.6709 -0.466433 1.16122 
0.025875 0.00309375 1.88611 2.58638e+21 1.71994e-05 1.68765 -2.88616 0.699245 
0.026625 0.00309375 2.01568 2.73271e+21 1.81725e-05 -2.07591 5.04999 1.2585 
0.025875 0.00328125 1.94609 2.56275e+21 1.70423e-05 2.66795 -1.33819 0.749428 
0.026625 0.00328125 2.04418 2.47997e+21 1.64918e-05 2.17435 -1.94665 1.53064 
0.025875 0.00421875 2.02405 2.81416e+21 1.87142e-05 1.82643 0.977216 1.2333 
0.026625 0.00421875 2.03973 2.58882e+21 1.72156e-05 0.112816 -2.03466 0.0473539 
0.025875 0.00440625 2.05853 2.65075e+21 1.76275e-05 1.43599 -1.84767 0.290515 
0.026625 0.00440625 2.03669 2.4915e+21 1.65684e-05 5.36383 -0.572959 2.86375 
0.028875 0.00384375 2.00442 2.64116e+21 1.75637e-05 2.64594 3.88494 2.93932 
0.028875 0.00403125 2.0342 2.70361e+21 1.7979e-05 0.191115 1.30115 -2.07539 
0.029625 0.00403125 1.96313 2.67554e+21 1.77923e-05 2.48409 -2.29981 -2.66655 
0.025875 0.00496875 1.96325 2.53744e+21 1.6874e-05 4.02929 1.90833 -0.563357 
0.028125 0.00459375 2.01931 2.68545e+21 1.78582e-05 -2.26325 0.8828 -5.42284 
0.029625 0.00571875 1.9516 2.69546e+21 1.79248e-05 3.65887 1.96751 5.87848 
0.024375 0.0216562 2.03071 2.5643e+21 1.70526e-05 -1.4091 1.37705 -3.85365 
0.025125 0.0216562 1.98522 2.63226e+21 1.75045e-05 0.458403 1.81119 0.17348 
0.025875 0.0216562 1.9806 2.58219e+21 1.71715e-05 1.21056 -1.47878 0.490684 
0.026625 0.0216562 1.9961 2.55e+21 1.69575e-05 1.25876 1.16648 -2.25247 
0.027375 0.0216562 2.02472 2.62868e+21 1.74807e-05 -2.74983 -0.39951 0.00113437 
0.028125 0.0216562 1.99303 2.72882e+21 1.81466e-05 2.34171 -1.12863 1.65612 
0.028875 0.0216562 2.07578 2.60007e+21 1.72904e-05 1.60007 0.0595836 0.450046 
0.029625 0.0216562 1.99689 2.63583e+21 1.75283e-05 2.52761 1.12193 3.57068 
0.006375 0.00084375 1.63951 7.01529e+21 4.66517e-05 54.0056 6.9668 1.62045 
0.007125 0.00084375 1.73081 5.92879e+21 3.94265e-05 52.1455 11.962 2.35132 
0.006375 0.00103125 1.81062 6.51899e+21 4.33513e-05 52.0578 7.11254 -2.0005 
0.007125 0.00103125 1.7474 5.46541e+21 3.6345e-05 46.888 17.6973 1.75391 
0.006375 0.00121875 1.85404 6.75114e+21 4.48951e-05 48.4144 5.65125 1.17803 
0.007125 0.00121875 1.62779 4.67101e+21 3.10622e-05 49.6729 22.7321 2.38453 
0.006375 0.00140625 1.84536 5.97171e+21 3.97119e-05 37.5186 8.49516 0.327119 
0.007125 0.00140625 1.9159 5.26348e+21 3.50021e-05 37.1486 19.8226 -2.34529 
0.006375 0.00159375 1.92511 4.97718e+21 3.30982e-05 26.9232 7.73618 -1.91327 
0.007125 0.00159375 1.8722 4.21107e+21 2.80036e-05 25.7745 18.5667 3.07057 
0.006375 0.00178125 2.07009 3.38339e+21 2.24996e-05 11.7594 11.9088 -3.01695 
0.007125 0.00178125 1.96952 4.0283e+21 2.67882e-05 23.7887 21.9566 3.82224 
0.007875 0.00196875 2.01698 4.20227e+21 2.79451e-05 11.9802 19.0239 -1.87509 
0.008625 0.00196875 1.88865 4.21377e+21 2.80216e-05 5.50074 16.2431 1.38583 
0.007875 0.00215625 1.94801 4.19903e+21 2.79235e-05 4.99885 17.5219 1.2591 
0.008625 0.00215625 1.82822 4.01532e+21 2.67019e-05 2.01743 17.8509 -1.15942 
0.007875 0.00234375 2.0883 3.88242e+21 2.58181e-05 5.33595 17.951 -1.16861 
0.008625 0.00234375 1.9167 3.84862e+21 2.55933e-05 4.79573 18.1219 -2.72258 
0.007875 0.00253125 1.97756 3.74685e+21 2.49166e-05 4.08839 15.9058 0.241414 
0.008625 0.00253125 1.88399 4.14926e+21 2.75926e-05 1.76738 16.5876 -3.17968 
0.006375 0.00271875 1.91476 3.54361e+21 2.3565e-05 1.28827 4.32427 5.39357 
0.007125 0.00271875 2.04999 3.62582e+21 2.41117e-05 2.15553 16.1788 -0.788425 
0.006375 0.00290625 2.05097 3.27848e+21 2.18019e-05 -1.49415 5.67026 -1.31587 
0.007125 0.00290625 1.9787 3.55935e+21 2.36697e-05 -0.906409 10.8215 0.0967143 
0.007875 0.00271875 1.96903 3.77152e+21 2.50806e-05 1.05033 14.497 -2.0219 
0.007875 0.00290625 1.98297 3.6606e+21 2.4343e-05 1.5983 15.3157 1.02982 
0.008625 0.00290625 1.97314 3.7268e+21 2.47832e-05 3.87488 17.8961 0.409612 
0.008625 0.00309375 2.02195 3.78628e+21 2.51788e-05 -0.328493 14.9833 -3.20422 
0.007875 0.00328125 2.07723 3.48024e+21 2.31436e-05 -3.51951 10.0198 0.780461 
0.008625 0.00346875 1.99998 3.7848e+21 2.51689e-05 -0.66252 13.713 0.485661 
0.008625 0.00365625 1.95 3.5288e+21 2.34665e-05 -1.45192 13.8334 0.331949 
0.006375 0.00384375 2.02471 3.39531e+21 2.25788e-05 -3.63399 4.25312 -3.30073 
0.006375 0.00403125 1.95225 3.69009e+21 2.45391e-05 -1.5948 3.58526 -0.665653 
0.006375 0.00421875 1.91495 3.41543e+21 2.27126e-05 -0.142131 7.37358 1.59349 
0.006375 0.00440625 1.91652 3.33751e+21 2.21945e-05 0.889267 6.26752 -4.72936 
0.006375 0.00459375 2.04434 3.40916e+21 2.26709e-05 0.698425 4.85707 -0.490465 
0.006375 0.00478125 1.97188 3.35536e+21 2.23131e-05 -0.400085 8.28455 0.836227 
0.006375 0.00496875 1.9566 3.35687e+21 2.23232e-05 -0.200989 3.94474 1.15473 
0.006375 0.00534375 1.88689 3.23646e+21 2.15225e-05 -2.5499 4.15361 3.2288 
0.006375 0.00553125 2.04234 3.36078e+21 2.23492e-05 -0.131714 5.75413 -0.19165 
0.006375 0.00571875 1.94957 3.38417e+21 2.25048e-05 2.1883 5.52641 -2.04615 
0.006375 0.00590625 1.91346 3.17973e+21 2.11452e-05 0.372087 6.76376 -2.99169 
0.009375 0.00534375 1.98696 3.42565e+21 2.27806e-05 -1.30149 5.97029 -1.40828 
0.010125 0.00534375 0 0 0 0 0 0 
0.010125 0.00553125 0 0 0 0 0 0 
0.006375 0.00609375 1.97835 3.28387e+21 2.18377e-05 -4.30514 0.689458 -0.706957 
0.006375 0.00628125 2.00512 3.33449e+21 2.21744e-05 0.990855 2.79183 -0.107649 
0.006375 0.00646875 2.03504 3.29689e+21 2.19243e-05 0.494891 2.52022 1.31288 
0.010125 0.00721875 0 0 0 0 0 0 
0.010125 0.00740625 0 0 0 0 0 0 
0.006375 0.00796875 2.01003 3.14498e+21 2.09141e-05 0.381479 4.35481 -0.0545446 
0.010125 0.00796875 0 0 0 0 0 0 
0.010125 0.00815625 0 0 0 0 0 0 
0.010125 0.00834375 0 0 0 0 0 0 
0.010125 0.00853125 0 0 0 0 0 0 
0.010125 0.00871875 0 0 0 0 0 0 
0.010125 0.00890625 0 0 0 0 0 0 
0.010125 0.00909375 0 0 0 0 0 0 
0.010125 0.00928125 0 0 0 0 0 0 
0.010125 0.00946875 1.92184 2.94795e+21 1.96039e-05 3.64136 1.93227 2.68884 
0.010875 0.00946875 2.03567 2.90007e+21 1.92855e-05 -0.850142 -1.70022 2.53936 
0.011625 0.00946875 2.15915 2.62648e+21 1.74661e-05 3.0665 -2.79748 1.16538 
0.015375 0.00309375 1.95074 2.58272e+21 1.71751e-05 3.91196 -0.572814 3.78283 
0.016125 0.00309375 1.93416 2.61564e+21 1.7394e-05 0.200088 0.123569 -0.967987 
0.015375 0.00328125 1.91848 2.53171e+21 1.68359e-05 4.45928 3.92856 -0.754964 
0.016125 0.00328125 1.98443 2.53516e+21 1.68588e-05 -2.68908 -1.48876 1.36439 
0.016875 0.00384375 2.03753 2.62938e+21 1.74854e-05 -1.44203 -3.14573 -2.03279 
0.017625 0.00384375 1.90262 2.61761e+21 1.74071e-05 -1.53496 2.63523 -0.252252 
0.016875 0.00403125 1.9076 2.50147e+21 1.66348e-05 -1.96524 1.04419 -1.10687 
0.017625 0.00403125 2.01114 2.50147e+21 1.66348e-05 0.978349 0.386344 -0.157348 
0.012375 0.00721875 2.04461 2.61042e+21 1.73593e-05 -3.0533 -2.58098 -14.1498 
0.012375 0.00740625 2.03661 2.65894e+21 1.76819e-05 -2.36213 -0.653333 -4.66271 
0.012375 0.00946875 1.99029 2.60623e+21 1.73314e-05 -0.978455 -3.74229 -2.12685 
0.021375 0.00346875 1.9724 2.76682e+21 1.83993e-05 0.506507 -1.65386 -1.72602 
0.022125 0.00346875 1.97146 2.53842e+21 1.68805e-05 4.69912 -3.09331 1.39353 
0.021375 0.00365625 1.95766 2.56302e+21 1.70441e-05 4.43922 0.555684 1.94325 
0.022125 0.00365625 1.92096 2.68374e+21 1.78469e-05 2.97979 0.268073 -0.289012 
0.021375 0.00421875 2.03623 2.74978e+21 1.8286e-05 1.80296 0.499617 -3.27827 
0.022125 0.00421875 2.09672 2.60491e+21 1.73227e-05 0.904328 1.39992 -0.768592 
0.022125 0.00440625 2.04424 2.61479e+21 1.73883e-05 2.58517 1.68987 -3.04997 
0.018375 0.00459375 1.97163 2.52777e+21 1.68097e-05 2.62429 0.971141 2.3519 
0.019125 0.00459375 2.06756 2.68791e+21 1.78746e-05 3.18403 -1.52592 -0.852274 
0.018375 0.0128438 0 0 0 0 0 0 
0.018375 0.0130313 0 0 0 0 0 0 
0.018375 0.0150937 0 0 0 0 0 0 
0.018375 0.0152812 0 0 0 0 0 0 
0.018375 0.0169687 0 0 0 0 0 0 
0.018375 0.0171562 0 0 0 0 0 0 
0.018375 0.0188437 0 0 0 0 0 0 
0.018375 0.0190312 0 0 0 0 0 0 
0.018375 0.0192187 0 0 0 0 0 0 
0.018375 0.0194062 0 0 0 0 0 0 
0.018375 0.0195938 0 0 0 0 0 0 
0.018375 0.0197812 0 0 0 0 0 0 
0.018375 0.0199687 0 0 0 0 0 0 
0.018375 0.0201562 0 0 0 0 0 0 
0.018375 0.0203437 0 0 0 0 0 0 
0.018375 0.0205312 0 0 0 0 0 0 
0.018375 0.0207187 0 0 0 0 0 0 
0.018375 0.0209062 0 0 0 0 0 0 
0.019875 0.0216562 2.0847 2.79319e+21 1.85747e-05 -2.41895 2.97932 0.726782 
0.020625 0.0216562 1.90192 2.57146e+21 1.71002e-05 -4.5917 -1.39 -2.61294 
0.021375 0.0216562 2.01915 2.77531e+21 1.84558e-05 1.75781 -1.11237 3.54554 
0.022125 0.0216562 1.88494 2.43913e+21 1.62202e-05 -2.30866 0.174072 -0.282355 
0.022875 0.0216562 1.99116 2.82538e+21 1.87888e-05 -1.01338 2.99791 -4.08351 
0.01125 0.0024375 0 0 0 0 0 0 
0.01125 0.0028125 0 0 0 0 0 0 
0.01875 0.0009375 1.98222 2.55025e+21 1.69592e-05 1.27675 0.295398 1.08015 
0.02025 0.0009375 2.07752 2.58043e+21 1.71599e-05 1.81323 1.14905 1.22348 
0.024375 0.00346875 1.95413 2.60694e+21 1.73362e-05 2.51524 -2.35928 -1.34001 
0.025125 0.00346875 2.0292 2.75703e+21 1.83342e-05 4.47435 1.11305 1.98362 
0.024375 0.00365625 1.90607 2.67136e+21 1.77645e-05 -2.63668 1.54757 0.420491 
0.025125 0.00365625 1.92614 2.7147e+21 1.80527e-05 -0.396411 2.18082 -0.800611 
0.028875 0.00346875 2.07039 2.65262e+21 1.76399e-05 0.75821 0.0921928 2.19299 
0.029625 0.00346875 2.02186 2.73093e+21 1.81607e-05 4.76945 2.97612 -0.186383 
0.028875 0.00365625 2.04328 2.56302e+21 1.70441e-05 -0.617716 -0.564593 0.591992 
0.029625 0.00365625 2.02949 2.54445e+21 1.69206e-05 -0.621015 -2.91156 0.372577 
0.024375 0.00384375 1.97547 2.72655e+21 1.81316e-05 4.28063 2.32625 1.55931 
0.024375 0.00403125 1.87998 2.65588e+21 1.76616e-05 3.19997 -1.0504 -3.22691 
0.025875 0.00384375 1.9783 2.68533e+21 1.78574e-05 2.06877 -6.49526 1.4226 
0.026625 0.00384375 1.94662 2.69122e+21 1.78966e-05 1.02893 -3.82165 -1.18694 
0.026625 0.00403125 1.87979 2.80468e+21 1.86511e-05 1.5443 4.338 -0.691051 
0.025125 0.00440625 1.99212 2.52489e+21 1.67905e-05 2.64378 2.82355 0.112799 
0.027375 0.00421875 1.98181 2.74173e+21 1.82325e-05 -0.207884 0.545577 -0.226239 
0.028125 0.00421875 1.98416 2.74173e+21 1.82325e-05 1.79463 1.04592 -2.43185 
0.028875 0.00421875 1.90528 2.50833e+21 1.66804e-05 1.08874 -0.317959 1.9503 
0.028875 0.00440625 1.96324 2.6302e+21 1.74908e-05 0.657995 0.72281 1.55966 
0.025875 0.00478125 2.00599 2.64641e+21 1.75987e-05 3.67201 -0.896155 0.392702 
0.007875 0.00121875 1.93078 4.92174e+21 3.27296e-05 26.1102 20.1856 -1.31648 
0.008625 0.00121875 2.05661 4.52243e+21 3.00742e-05 10.4017 18.6185 -7.20397 
0.007875 0.00140625 1.89566 4.28965e+21 2.85262e-05 29.4013 22.2815 -0.0913464 
0.008625 0.00140625 2.02101 4.37818e+21 2.91149e-05 11.8443 17.2074 2.10898 
0.006375 0.00346875 2.10338 3.28519e+21 2.18465e-05 -5.37966 3.65405 3.30634 
0.006375 0.00365625 1.98409 3.41272e+21 2.26946e-05 -5.56479 6.58756 3.25042 
0.010125 0.00496875 0 0 0 0 0 0 
0.010125 0.00515625 0 0 0 0 0 0 
0.010125 0.00571875 0 0 0 0 0 0 
0.010125 0.00590625 0 0 0 0 0 0 
0.010125 0.00609375 0 0 0 0 0 0 
0.010125 0.00628125 0 0 0 0 0 0 
0.010125 0.00646875 0 0 0 0 0 0 
0.010125 0.00665625 0 0 0 0 0 0 
0.013875 0.00346875 2.03619 2.56453e+21 1.70541e-05 -0.697054 -1.10661 0.232589 
0.014625 0.00346875 1.94293 2.62326e+21 1.74447e-05 -0.101523 -2.46245 1.34443 
0.013875 0.00365625 2.00282 2.69303e+21 1.79086e-05 5.56138 -2.61629 -2.99197 
0.014625 0.00365625 2.04198 2.66207e+21 1.77028e-05 -0.80209 -2.21816 4.80347 
0.014625 0.00421875 2.11073 2.63442e+21 1.75189e-05 2.14629 -1.7104 1.95594 
0.016125 0.00384375 2.08292 2.57049e+21 1.70938e-05 3.06274 0.934207 -3.34104 
0.015375 0.00403125 1.95367 2.8103e+21 1.86885e-05 4.14648 -2.12557 0.722953 
0.016125 0.00403125 2.09443 2.53516e+21 1.68588e-05 0.674133 -0.751278 -1.60723 
0.015375 0.00421875 2.04552 2.61833e+21 1.74119e-05 1.83823 2.04099 -0.944621 
0.016125 0.00421875 1.9436 2.7149e+21 1.80541e-05 1.99841 -0.00840115 -2.24615 
0.017625 0.00440625 1.92714 2.66616e+21 1.77299e-05 4.13881 -1.71838 -3.22998 
0.017625 0.00459375 2.04229 2.66327e+21 1.77108e-05 3.31402 3.21642 1.19559 
0.015375 0.00534375 2.04219 2.70671e+21 1.79996e-05 1.93113 2.89159 0.407426 
0.012375 0.00684375 1.83134 2.67904e+21 1.78156e-05 1.91373 2.94666 -5.51334 
0.012375 0.00703125 1.617 2.94562e+21 1.95883e-05 -2.59765 4.34531 9.36058 
0.012375 0.00796875 2.074 2.83342e+21 1.88422e-05 -6.97325 15.8282 -4.18642 
0.012375 0.00815625 1.99016 2.41444e+21 1.6056e-05 11.6597 -8.73064 3.95235 
0.012375 0.00834375 1.73541 2.52295e+21 1.67776e-05 -3.17309 -9.12224 -1.00903 
0.012375 0.00853125 1.69989 2.5272e+21 1.68059e-05 0.800251 1.11446 -7.93146 
0.012375 0.00871875 1.83363 2.92069e+21 1.94226e-05 8.92588 -2.16655 -3.77861 
0.012375 0.00890625 2.17223 2.57328e+21 1.71123e-05 -9.06916 -8.88153 -8.7966 
0.012375 0.00909375 2.1835 2.72558e+21 1.81251e-05 4.36964 -3.32163 3.22721 
0.012375 0.00928125 1.95496 2.9083e+21 1.93402e-05 2.36831 -2.80524 -2.979 
0.018375 0.00309375 1.93214 2.80587e+21 1.8659e-05 1.0438 -0.811952 -2.12412 
0.019125 0.00309375 1.98029 2.78758e+21 1.85374e-05 2.56065 -1.94478 -0.474714 
0.018375 0.00328125 1.98793 2.60415e+21 1.73176e-05 2.24376 -1.60519 3.7978 
0.019125 0.00328125 1.95606 2.74901e+21 1.82809e-05 -0.1865 0.921813 -2.38912 
0.019875 0.00309375 2.00557 2.52784e+21 1.68102e-05 1.06049 -2.57781 -1.34719 
0.020625 0.00309375 1.87873 2.84977e+21 1.8951e-05 0.862971 0.356744 0.0654285 
0.019875 0.00328125 1.96912 2.51447e+21 1.67212e-05 0.89827 -1.96741 6.71383 
0.020625 0.00328125 1.9996 2.51792e+21 1.67441e-05 2.77567 1.26718 2.78741 
0.019125 0.00384375 1.99464 2.68827e+21 1.7877e-05 -2.54268 -2.29636 -0.383414 
0.019125 0.00403125 1.98577 2.64465e+21 1.75869e-05 -0.336639 -0.605895 2.45195 
0.019875 0.00384375 2.00982 2.67649e+21 1.77987e-05 4.70924 0.606333 1.88585 
0.020625 0.00384375 2.01142 2.59405e+21 1.72504e-05 -0.785758 -0.606301 -1.83363 
0.019875 0.00403125 1.993 2.69519e+21 1.7923e-05 1.41482 -0.990519 -1.56596 
0.020625 0.00421875 2.0182 2.55931e+21 1.70194e-05 3.04315 -3.42236 -0.32696 
0.020625 0.00440625 1.95925 2.68927e+21 1.78837e-05 1.70148 0.720189 1.00691 
0.021375 0.00403125 1.95024 2.698e+21 1.79417e-05 1.48164 2.9374 -3.25776 
0.022875 0.00421875 1.88647 2.67466e+21 1.77865e-05 3.01659 2.2783 0.352467 
0.022875 0.00440625 2.07125 2.56855e+21 1.70809e-05 2.53087 2.98421 1.13987 
0.023625 0.00440625 2.08422 2.75863e+21 1.83449e-05 2.32236 -1.06261 1.02928 
0.022875 0.00459375 1.98742 2.58444e+21 1.71865e-05 6.74134 -4.85192 2.08136 
0.023625 0.00459375 2.00371 2.77414e+21 1.8448e-05 1.30452 0.0655265 -1.85076 
0.023625 0.00496875 2.10507 2.75155e+21 1.82978e-05 2.74744 -0.318292 2.77304 
0.018375 0.0132188 0 0 0 0 0 0 
0.018375 0.0134063 0 0 0 0 0 0 
0.018375 0.0139688 0 0 0 0 0 0 
0.018375 0.0141563 0 0 0 0 0 0 
0.018375 0.0154687 0 0 0 0 0 0 
0.018375 0.0156563 0 0 0 0 0 0 
0.018375 0.0158438 0 0 0 0 0 0 
0.018375 0.0160313 0 0 0 0 0 0 
0.018375 0.0165937 0 0 0 0 0 0 
0.018375 0.0167812 0 0 0 0 0 0 
0.018375 0.0173437 0 0 0 0 0 0 
0.018375 0.0175312 0 0 0 0 0 0 
0.018375 0.0177187 0 0 0 0 0 0 
0.018375 0.0179062 0 0 0 0 0 0 
0.018375 0.0180937 0 0 0 0 0 0 
0.018375 0.0182812 0 0 0 0 0 0 
0.018375 0.0184687 0 0 0 0 0 0 
0.018375 0.0186562 0 0 0 0 0 0 
0.018375 0.0210937 0 0 0 0 0 0 
0.018375 0.0212812 0 0 0 0 0 0 
0.0241875 0.0109219 2.04148 2.56988e+21 1.70897e-05 3.82031 1.72101 -0.949538 
0.0245625 0.0109219 2.05761 2.52428e+21 1.67865e-05 -2.7422 -2.56704 0.170285 
0.0241875 0.0110156 2.04577 2.66719e+21 1.77368e-05 -0.672894 1.03473 -1.55333 
0.0245625 0.0110156 1.99727 2.56444e+21 1.70535e-05 -0.0889618 -2.26663 1.67675 
0.0249375 0.0111094 1.99134 2.57948e+21 1.71535e-05 -0.645186 0.671737 -1.2303 
0.0253125 0.0111094 2.05199 2.71803e+21 1.80749e-05 0.843264 -2.37874 1.57353 
0.0249375 0.0112031 1.9913 2.65083e+21 1.7628e-05 -0.355794 2.95994 -1.79412 
0.0253125 0.0112031 1.98456 2.78822e+21 1.85417e-05 4.54563 0.137478 -2.20585 
0.0271875 0.0114844 1.95199 2.54255e+21 1.6908e-05 -3.04335 -1.91316 1.65909 
0.0275625 0.0114844 2.08981 2.60562e+21 1.73274e-05 3.02087 -0.363232 -0.681758 
0.0271875 0.0115781 2.05138 2.83868e+21 1.88772e-05 6.41822 4.91766 4.0674 
0.0275625 0.0115781 1.87623 2.77221e+21 1.84352e-05 1.53428 0.822613 3.08621 
0.0286875 0.0116719 1.82878 2.53274e+21 1.68427e-05 -3.87999 0.604583 -1.47204 
0.0290625 0.0116719 2.10129 2.61807e+21 1.74101e-05 -0.419736 -0.0869696 -4.36792 
0.0286875 0.0117656 1.98946 2.65107e+21 1.76296e-05 -1.70593 -2.34446 0.10368 
0.0290625 0.0117656 1.98855 2.68955e+21 1.78855e-05 1.00524 1.91552 -1.28405 
0.0264375 0.0120469 1.98701 2.5253e+21 1.67932e-05 -4.22806 3.54687 -3.5483 
0.0268125 0.0120469 1.97111 2.69064e+21 1.78928e-05 1.38077 -1.10054 1.88783 
0.0264375 0.0121406 2.01714 2.74817e+21 1.82753e-05 -0.11407 -1.81306 -0.360273 
0.0268125 0.0121406 2.04536 2.52444e+21 1.67875e-05 -1.7327 5.6578 -0.763723 
0.0249375 0.0126094 1.89386 2.83629e+21 1.88613e-05 -0.770902 4.8136 -3.43781 
0.0253125 0.0126094 1.93071 2.62088e+21 1.74288e-05 0.359971 0.464625 -1.571 
0.0249375 0.0127031 1.98448 2.75478e+21 1.83193e-05 0.774393 2.227 0.288237 
0.0253125 0.0127031 2.03996 2.67994e+21 1.78216e-05 3.32806 -3.99152 4.32851 
0.0264375 0.0124219 1.9707 2.72604e+21 1.81282e-05 1.98897 0.236532 0.655655 
0.0268125 0.0124219 2.066 2.66044e+21 1.76919e-05 -0.224883 1.62405 1.00624 
0.0264375 0.0125156 1.98359 2.66583e+21 1.77278e-05 0.076136 0.352237 0.0579991 
0.0268125 0.0125156 1.96189 2.71285e+21 1.80405e-05 5.40315 -1.50934 -0.694218 
0.0279375 0.0122344 1.95569 2.5606e+21 1.7028e-05 -0.544502 -0.528976 -2.95693 
0.0283125 0.0122344 1.99723 2.77152e+21 1.84306e-05 4.61017 1.13071 1.79698 
0.0279375 0.0123281 1.89256 2.66965e+21 1.77532e-05 2.9717 -3.7444 -0.864199 
0.0283125 0.0123281 2.09201 2.50073e+21 1.66299e-05 -0.898978 -0.809938 -0.0719193 
0.0256875 0.0127969 1.9582 2.56479e+21 1.70558e-05 1.00034 -3.3171 0.937984 
0.0260625 0.0127969 1.92401 2.55771e+21 1.70088e-05 3.14571 0.513841 0.125414 
0.0256875 0.0128906 2.05346 2.59179e+21 1.72354e-05 -0.282839 -4.0664 1.51437 
0.0260625 0.0128906 2.04728 2.8306e+21 1.88235e-05 2.57688 2.99007 -2.83155 
0.0264375 0.0131719 2.01141 2.63612e+21 1.75302e-05 -0.468299 0.498773 -0.818711 
0.0268125 0.0131719 2.02338 2.63612e+21 1.75302e-05 4.10954 -2.31269 -1.95282 
0.0264375 0.0132656 2.02011 2.49805e+21 1.6612e-05 3.97271 3.39656 3.58998 
0.0268125 0.0132656 1.97471 2.71646e+21 1.80644e-05 0.782929 0.697525 3.02152 
0.0256875 0.0133594 2.0289 2.45002e+21 1.62926e-05 3.34536 -3.40297 -0.358928 
0.0260625 0.0133594 1.99202 2.49746e+21 1.66081e-05 -2.78923 -1.41786 3.80104 
0.0256875 0.0134531 1.93174 2.65841e+21 1.76784e-05 -0.842649 3.23769 1.14825 
0.0260625 0.0134531 2.0029 2.7459e+21 1.82602e-05 0.611058 -0.461057 4.13107 
0.0271875 0.0127969 1.92482 2.5754e+21 1.71264e-05 2.02239 -2.61408 0.424334 
0.0275625 0.0127969 1.95071 2.7629e+21 1.83733e-05 0.390291 -1.92472 0.925504 
0.0271875 0.0128906 2.00279 2.65149e+21 1.76324e-05 -1.95467 4.2195 -1.66614 
0.0275625 0.0128906 2.02473 2.56721e+21 1.70719e-05 4.36893 -4.90228 -2.79436 
0.0286875 0.0127969 2.02442 2.8478e+21 1.89379e-05 3.89937 -2.10865 2.53846 
0.0290625 0.0127969 2.03154 2.62493e+21 1.74558e-05 -0.199441 1.17275 0.661489 
0.0286875 0.0128906 2.03046 2.54965e+21 1.69552e-05 4.25076 -1.55413 -0.489489 
0.0290625 0.0128906 2.04213 2.72876e+21 1.81462e-05 -2.1794 2.76096 -5.31706 
0.0241875 0.0135469 1.96996 2.62664e+21 1.74672e-05 0.047289 0.0967272 -2.14552 
0.0245625 0.0135469 2.02846 2.6634e+21 1.77116e-05 2.10907 2.27957 -0.617113 
0.0241875 0.0136406 2.02554 2.592e+21 1.72368e-05 2.71514 -1.33912 0.0725087 
0.0245625 0.0136406 2.02432 2.70152e+21 1.79651e-05 -1.13247 0.660194 -0.546065 
0.0256875 0.0135469 2.00145 2.54644e+21 1.69338e-05 1.29975 -0.826084 -0.316465 
0.0260625 0.0135469 2.03126 2.64001e+21 1.75561e-05 1.21886 -2.99672 -4.18032 
0.0256875 0.0136406 2.00362 2.60859e+21 1.73471e-05 4.90928 0.718675 3.17085 
0.0260625 0.0136406 1.98805 2.66501e+21 1.77223e-05 -3.78372 0.750105 -2.02987 
0.0249375 0.0141094 1.97029 2.68877e+21 1.78803e-05 3.08976 -1.63576 -0.290441 
0.0253125 0.0142031 2.02824 2.67102e+21 1.77623e-05 1.92848 4.07708 5.46648 
0.0256875 0.0141094 1.98581 2.65027e+21 1.76243e-05 -2.42757 1.29672 1.51533 
0.0260625 0.0141094 2.04385 2.5861e+21 1.71975e-05 -1.76596 -6.19151 2.23791 
0.0256875 0.0142031 2.04709 2.73796e+21 1.82074e-05 -1.03316 -1.54304 0.397424 
0.0260625 0.0142031 2.03167 2.57221e+21 1.71052e-05 0.0315383 -4.01796 0.751092 
0.0279375 0.0137344 1.93149 2.66989e+21 1.77548e-05 2.27851 2.33562 0.481876 
0.0283125 0.0137344 2.04547 2.69956e+21 1.79521e-05 -2.26889 -2.51446 1.81805 
0.0279375 0.0138281 1.97824 2.54048e+21 1.68942e-05 1.49598 3.51568 -0.167694 
0.0283125 0.0138281 1.89866 2.74018e+21 1.82222e-05 0.147232 0.919661 0.602832 
0.0271875 0.0139219 1.96694 2.74775e+21 1.82725e-05 0.0785087 0.550498 0.308409 
0.0275625 0.0139219 2.02633 2.5754e+21 1.71264e-05 0.442965 1.71962 -1.44418 
0.0271875 0.0140156 2.01352 2.58725e+21 1.72052e-05 2.36054 -0.402451 -2.5756 
0.0275625 0.0140156 2.01753 2.56464e+21 1.70548e-05 0.376775 -2.45897 2.48227 
0.0279375 0.0141094 2.01407 2.53476e+21 1.68562e-05 1.60132 1.03425 -0.202088 
0.0283125 0.0141094 2.01156 2.84599e+21 1.89258e-05 -0.270822 -2.76966 -0.716507 
0.0279375 0.0142031 2.05047 2.68059e+21 1.78259e-05 0.272281 1.62265 -1.16796 
0.0283125 0.0142031 1.92512 2.7029e+21 1.79743e-05 0.832657 4.1103 -1.04812 
0.0294375 0.0139219 2.08958 2.59491e+21 1.72562e-05 2.24348 -2.08788 4.20825 
0.0298125 0.0139219 2.07395 2.61442e+21 1.73859e-05 -1.24269 -4.28733 -0.526702 
0.0294375 0.0140156 1.9311 2.62278e+21 1.74415e-05 2.31277 2.81288 -2.47952 
0.0298125 0.0140156 2.01206 2.83596e+21 1.88591e-05 -2.31129 -0.501807 3.18919 
0.0294375 0.0141094 1.94299 2.61497e+21 1.73896e-05 -1.98612 -1.32543 0.781114 
0.0298125 0.0141094 1.97233 2.70161e+21 1.79657e-05 0.628839 1.10495 -0.871824 
0.0294375 0.0142031 1.90685 2.6519e+21 1.76351e-05 2.92111 3.48613 -3.50084 
0.0298125 0.0142031 2.00109 2.61365e+21 1.73808e-05 2.19516 -0.176823 -1.6598 
0.0249375 0.0142969 2.03676 2.65034e+21 1.76248e-05 -0.0332715 -0.0452218 -0.83972 
0.0253125 0.0142969 2.00242 2.68201e+21 1.78353e-05 1.12328 -1.23882 2.32547 
0.0249375 0.0143906 2.00546 2.65824e+21 1.76773e-05 2.18743 0.429532 1.44388 
0.0253125 0.0143906 1.91433 2.70543e+21 1.79911e-05 -0.394518 -1.12516 5.40177 
0.0256875 0.0142969 2.03467 2.72317e+21 1.81091e-05 -1.5273 -0.795891 0.418883 
0.0260625 0.0142969 1.92685 2.79917e+21 1.86145e-05 -1.25296 -1.19831 1.68988 
0.0256875 0.0143906 1.97048 2.67397e+21 1.77819e-05 0.441786 -1.09056 -0.873289 
0.0260625 0.0143906 1.9099 2.5733e+21 1.71125e-05 0.301158 4.67675 -1.54423 
0.0260625 0.0146719 1.8588 2.59803e+21 1.72769e-05 0.930874 0.950018 0.782317 
0.0256875 0.0147656 2.01694 2.70724e+21 1.80031e-05 0.466382 0.0126153 -2.7038 
0.0256875 0.0148594 2.10229 2.66883e+21 1.77477e-05 -0.65406 0.900373 1.62042 
0.0260625 0.0148594 2.0744 2.60181e+21 1.7302e-05 2.41152 0.255091 -2.11516 
0.0256875 0.0149531 2.03078 2.71265e+21 1.80391e-05 -4.27152 0.496301 -1.91088 
0.0271875 0.0142969 1.97284 2.72317e+21 1.81091e-05 0.689008 2.02881 0.0995048 
0.0275625 0.0142969 1.94739 2.65984e+21 1.76879e-05 1.04219 -0.578229 4.26467 
0.0271875 0.0143906 2.0099 2.64881e+21 1.76146e-05 -4.60648 1.15364 -1.29694 
0.0275625 0.0143906 1.89813 2.69285e+21 1.79074e-05 -1.82998 1.91977 1.70802 
0.0279375 0.0142969 2.01411 2.77383e+21 1.8446e-05 -3.23147 0.769926 -0.991919 
0.0283125 0.0142969 1.90689 2.59968e+21 1.72879e-05 -0.759028 -0.155782 2.94512 
0.0279375 0.0143906 2.00359 2.56072e+21 1.70288e-05 -2.22012 1.27525 -1.1131 
0.0283125 0.0143906 1.92557 2.60162e+21 1.73008e-05 -3.51198 1.2061 -4.63222 
0.0286875 0.0144844 1.91653 2.75043e+21 1.82904e-05 1.14299 -2.91386 1.40476 
0.0290625 0.0144844 2.04958 2.52539e+21 1.67939e-05 2.66908 -0.824771 -0.53276 
0.0286875 0.0145781 2.00324 2.52468e+21 1.67891e-05 0.0920246 -0.357155 -0.392673 
0.0290625 0.0145781 2.12119 2.7079e+21 1.80075e-05 -1.92719 -1.3277 1.96166 
0.0294375 0.0144844 2.08716 2.84107e+21 1.88931e-05 -1.27574 2.46367 0.966444 
0.0298125 0.0144844 2.00615 2.69417e+21 1.79162e-05 -0.169561 -3.2358 -2.09733 
0.0279375 0.0148594 2.02285 2.52869e+21 1.68158e-05 0.0761719 -2.43732 -2.96066 
0.0283125 0.0148594 2.02494 2.51955e+21 1.6755e-05 0.0865138 -3.2575 1.25494 
0.0283125 0.0149531 2.05761 2.79136e+21 1.85626e-05 1.57713 0.566053 1.86503 
0.0245625 0.0154219 2.05212 2.56562e+21 1.70614e-05 5.60611 1.34995 -1.63673 
0.0241875 0.0155156 2.06521 2.72226e+21 1.8103e-05 0.675239 3.43748 -1.05983 
0.0245625 0.0155156 1.99323 2.71059e+21 1.80254e-05 1.28537 -0.310596 -2.61246 
0.0249375 0.0154219 1.98827 2.55094e+21 1.69637e-05 3.06682 0.832799 -3.19973 
0.0253125 0.0154219 2.04189 2.61846e+21 1.74127e-05 2.30661 0.693986 -5.81437 
0.0249375 0.0155156 2.06558 2.62306e+21 1.74433e-05 1.62318 0.806655 -0.169239 
0.0241875 0.0156094 1.8695 2.67691e+21 1.78015e-05 0.638019 2.43477 -4.57176 
0.0245625 0.0156094 1.92627 2.63341e+21 1.75122e-05 -1.14394 0.227432 2.16642 
0.0241875 0.0157031 1.98017 2.58597e+21 1.71967e-05 -0.510659 -1.6668 1.4344 
0.0245625 0.0157031 2.01885 2.7157e+21 1.80594e-05 2.30249 -3.67087 5.31481 
0.0260625 0.0156094 2.03239 2.5232e+21 1.67793e-05 0.0679608 -0.251821 -2.18699 
0.0260625 0.0157031 1.99775 2.70417e+21 1.79827e-05 2.25608 2.12337 0.847714 
0.0264375 0.0156094 2.0067 2.70011e+21 1.79557e-05 1.24181 1.50118 2.46943 