ITEM: TIMESTEP
500000
ITEM: NUMBER OF CELLS
21550
ITEM: BOX BOUNDS oo ao pp
0 0.12
0 0.03
-0.1 0.1
ITEM: CELLS xc yc f_out[1] f_out[2] f_out[3] f_out[4] f_out[5] f_out[6] 
0.003 0.00375 0 0 0 0 0 0 
0.003 0.00525 0 0 0 0 0 0 
0.003 0.00675 0 0 0 0 0 0 
0.003 0.00825 0 0 0 0 0 0 
0.003 0.00975 0 0 0 0 0 0 
0.003 0.01125 0 0 0 0 0 0 
0.003 0.01275 0 0 0 0 0 0 
0.003 0.01425 0 0 0 0 0 0 
0.003 0.01575 0 0 0 0 0 0 
0.003 0.01725 0 0 0 0 0 0 
0.003 0.01875 0 0 0 0 0 0 
0.003 0.02025 0 0 0 0 0 0 
0.003 0.02175 0 0 0 0 0 0 
0.003 0.02325 0 0 0 0 0 0 
0.027 0.02325 0 0 0 0 0 0 
0.003 0.02475 0 0 0 0 0 0 
0.027 0.02475 0 0 0 0 0 0 
0.003 0.02625 0 0 0 0 0 0 
0.027 0.02625 0 0 0 0 0 0 
0.003 0.02775 0 0 0 0 0 0 
0.027 0.02775 0 0 0 0 0 0 
0.003 0.02925 0 0 0 0 0 0 
0.027 0.02925 0 0 0 0 0 0 
0.009 0.01425 0 0 0 0 0 0 
0.009 0.01575 0 0 0 0 0 0 
0.009 0.01725 0 0 0 0 0 0 
0.009 0.01875 0 0 0 0 0 0 
0.009 0.02025 0 0 0 0 0 0 
0.009 0.02175 0 0 0 0 0 0 
0.009 0.02325 0 0 0 0 0 0 
0.009 0.02475 0 0 0 0 0 0 
0.009 0.02625 0 0 0 0 0 0 
0.009 0.02775 0 0 0 0 0 0 
0.009 0.02925 0 0 0 0 0 0 
0.015 0.01425 0 0 0 0 0 0 
0.015 0.01575 0 0 0 0 0 0 
0.015 0.01725 0 0 0 0 0 0 
0.015 0.01875 0 0 0 0 0 0 
0.015 0.02025 0 0 0 0 0 0 
0.015 0.02175 0 0 0 0 0 0 
0.015 0.02325 0 0 0 0 0 0 
0.015 0.02475 0 0 0 0 0 0 
0.015 0.02625 0 0 0 0 0 0 
0.015 0.02775 0 0 0 0 0 0 
0.015 0.02925 0 0 0 0 0 0 
0.021 0.02325 0 0 0 0 0 0 
0.021 0.02475 0 0 0 0 0 0 
0.021 0.02625 0 0 0 0 0 0 
0.021 0.02775 0 0 0 0 0 0 
0.021 0.02925 0 0 0 0 0 0 
0.0015 0.000375 0 0 0 0 0 0 
0.0015 0.001125 0 0 0 0 0 0 
0.0255 0.022125 0 0 0 0 0 0 
0.0285 0.022125 0 0 0 0 0 0 
0.0075 0.000375 1.93215 2.30881e+21 1.53536e-05 25.403 2.3233 0.0789606 
0.0105 0.000375 1.93195 2.23151e+21 1.48395e-05 1.28384 6.12584 4.50774 
0.0105 0.001125 2.04307 1.92899e+21 1.28278e-05 3.24234 3.51228 -0.815231 
0.0105 0.001875 1.97171 1.94323e+21 1.29224e-05 1.27968 1.01024 0.467418 
0.0105 0.002625 1.89928 1.81815e+21 1.20907e-05 1.96203 6.42922 -0.097604 
0.0075 0.013125 0 0 0 0 0 0 
0.0105 0.013125 0 0 0 0 0 0 
0.0135 0.013125 0 0 0 0 0 0 
0.0165 0.013125 0 0 0 0 0 0 
0.0195 0.022125 0 0 0 0 0 0 
0.0225 0.022125 0 0 0 0 0 0 
0.00675 0.0009375 1.8884 2.35408e+21 1.56546e-05 28.4829 8.90576 0.365571 
0.00825 0.0009375 2.01844 2.02209e+21 1.34469e-05 12.0592 9.35268 1.65582 
0.00675 0.0028125 2.04038 1.6888e+21 1.12305e-05 2.32046 6.9446 1.59257 
0.01125 0.0091875 0 0 0 0 0 0 
0.003375 0.00121875 1.87209 4.78978e+21 3.1852e-05 21.3216 -0.930179 5.37674 
0.004125 0.00121875 2.01379 4.31813e+21 2.87156e-05 27.2834 5.72772 2.09901 
0.003375 0.00140625 2.0584 4.9136e+21 3.26754e-05 16.099 -6.66859 -4.34255 
0.004125 0.00140625 2.00376 4.515e+21 3.00248e-05 16.9022 1.40028 0.174532 
0.016875 0.00871875 1.93659 1.39155e+21 9.25379e-06 2.3124 -0.788687 1.55909 
0.0135 0.000375 1.97326 1.33352e+21 8.8679e-06 -1.76782 1.01835 0.11098 
0.0165 0.000375 1.99775 1.36755e+21 9.09423e-06 0.491194 2.51742 -0.961146 
0.00375 0.0001875 1.81341 4.99007e+21 3.3184e-05 22.0781 4.02064 -0.496011 
0.00525 0.0001875 1.83576 3.83292e+21 2.54889e-05 25.2134 6.13491 2.62989 
0.00375 0.0005625 1.86977 4.36131e+21 2.90027e-05 22.3919 -3.1789 2.23862 
0.00525 0.0005625 1.90157 3.80274e+21 2.52882e-05 28.6686 1.73344 -1.04675 
0.00825 0.0016875 2.02253 1.86784e+21 1.24211e-05 7.85312 8.55681 -2.40153 
0.00675 0.0020625 2.02304 1.80904e+21 1.20301e-05 3.59112 7.88521 0.231281 
0.024375 0.00871875 2.05001 1.34352e+21 8.9344e-06 2.65031 -2.71465 -2.33879 
0.029625 0.00909375 2.08243 1.40262e+21 9.32739e-06 -3.11002 0.0680803 1.79062 
0.029625 0.00928125 1.99579 1.30599e+21 8.68485e-06 2.05964 -3.01258 3.66019 
0.028875 0.0100312 2.01401 1.38097e+21 9.18344e-06 0.0610048 -0.878248 0.113043 
0.006375 0.00871875 1.96225 1.63559e+21 1.08767e-05 4.3686 1.85148 4.70446 
0.006375 0.00890625 1.98758 1.50823e+21 1.00297e-05 -3.53255 -0.927261 -0.225092 
0.006375 0.00984375 1.91352 1.56292e+21 1.03934e-05 1.1221 2.48356 -3.87899 
0.006375 0.0100312 1.98695 1.48716e+21 9.88965e-06 3.76145 3.9867 2.57794 
0.007875 0.0100312 2.04985 1.48025e+21 9.84369e-06 -0.163475 -0.103383 0.995535 
0.010875 0.00984375 1.97124 1.44636e+21 9.61832e-06 1.01789 1.2042 -1.6111 
0.011625 0.0100312 1.94925 1.40015e+21 9.31099e-06 0.525266 0.83717 0.23242 
0.006375 0.0109687 1.96716 1.40455e+21 9.34028e-06 0.530376 2.09093 3.08235 
0.006375 0.0111562 2.03835 1.56545e+21 1.04103e-05 2.91051 -1.44637 -0.977385 
0.006375 0.0120938 2.03487 1.50376e+21 1e-05 1.39123 -1.76958 2.66909 
0.006375 0.0122813 1.98019 1.49808e+21 9.96224e-06 -0.360723 -0.536587 4.84347 
0.016875 0.00965625 2.05065 1.45687e+21 9.68817e-06 2.74196 -3.9157 -0.701516 
0.017625 0.00965625 2.03372 1.40764e+21 9.36082e-06 0.154148 0.692547 -4.12655 
0.016125 0.0100312 2.02312 1.37307e+21 9.13092e-06 2.47719 -3.00566 -0.22372 
0.019875 0.00946875 1.98351 1.35424e+21 9.00568e-06 1.69183 -1.21304 0.384624 
0.020625 0.00946875 1.84942 1.42834e+21 9.49849e-06 1.50395 -0.488628 0.28334 
0.019875 0.00965625 2.00979 1.42288e+21 9.46214e-06 1.34014 -0.517013 1.0277 
0.022875 0.0115312 1.9923 1.35052e+21 8.98093e-06 -0.427623 0.655925 0.093798 
0.0255 0.000375 1.94999 1.4166e+21 9.42037e-06 -0.269395 1.16042 0.0309287 
0.0285 0.000375 2.05985 1.36378e+21 9.06914e-06 0.46514 3.45173 4.75778 
0.0195 0.000375 1.97444 1.37321e+21 9.13186e-06 1.31477 -2.94007 -1.87986 
0.0225 0.000375 1.97671 1.40151e+21 9.32002e-06 0.447917 1.95343 4.3512 
0.01275 0.0039375 1.96082 1.42818e+21 9.49742e-06 -1.35027 3.25215 -0.598836 
0.01275 0.0043125 2.04028 1.30522e+21 8.67974e-06 3.20011 2.37523 -0.54525 
0.02025 0.0024375 2.02578 1.32678e+21 8.82309e-06 -0.743529 -0.197732 1.86979 
0.02775 0.0024375 1.9983 1.36044e+21 9.04695e-06 1.64244 -1.09811 3.07564 
0.004875 0.00121875 1.82982 3.93739e+21 2.61837e-05 21.2693 1.14435 -0.716308 
0.005625 0.00121875 1.79175 3.31521e+21 2.20462e-05 18.6654 -2.79578 -2.20448 
0.004875 0.00140625 2.04523 4.00797e+21 2.6653e-05 13.0922 -5.34701 -1.74203 
0.005625 0.00140625 2.0236 3.25145e+21 2.16221e-05 20.7062 1.48486 -2.54038 
0.028125 0.00909375 2.07725 1.35532e+21 9.01289e-06 0.347366 -2.0181 1.78736 
0.027375 0.00928125 2.11084 1.39989e+21 9.30925e-06 -4.35889 0.501727 0.882705 
0.028125 0.00928125 2.07725 1.37794e+21 9.16329e-06 2.45674 1.13315 -0.215962 
0.025125 0.0109687 1.98576 1.37644e+21 9.1533e-06 3.51665 1.93579 -1.45161 
0.028125 0.0119063 1.96197 1.38688e+21 9.22273e-06 -1.7228 -1.85888 -2.34614 
0.024375 0.0216562 1.97421 1.34474e+21 8.94252e-06 -2.20328 2.66195 -4.22178 
0.025125 0.0216562 1.95014 1.3662e+21 9.08522e-06 -4.43015 0.643313 -0.584618 
0.025875 0.0216562 1.9605 1.33043e+21 8.84738e-06 -3.10767 -0.641558 0.452637 
0.026625 0.0216562 1.93377 1.46276e+21 9.72736e-06 -0.770818 1.24669 1.42644 
0.007875 0.00421875 2.05332 1.67669e+21 1.115e-05 -1.48281 4.11047 -3.48049 
0.008625 0.00421875 2.02474 1.69816e+21 1.12927e-05 -1.37714 2.28474 -0.532423 
0.007875 0.00440625 2.11397 1.62333e+21 1.07951e-05 1.14947 6.20499 -3.28866 
0.008625 0.00440625 2.07096 1.62589e+21 1.08122e-05 1.01173 6.26346 -3.6508 
0.007875 0.00496875 2.05186 1.67644e+21 1.11483e-05 1.06556 4.36572 1.28784 
0.008625 0.00496875 2.01564 1.66505e+21 1.10726e-05 -5.24777 6.28846 0.224769 
0.007875 0.00515625 1.93858 1.55183e+21 1.03196e-05 -4.44632 7.99908 0.665015 
0.008625 0.00515625 2.08358 1.50354e+21 9.99852e-06 2.92722 5.29504 -4.76137 
0.007875 0.00609375 2.02096 1.55638e+21 1.035e-05 1.60875 5.9604 4.09932 
0.008625 0.00609375 2.00907 1.62882e+21 1.08316e-05 -0.47399 7.07982 1.72361 
0.007875 0.00628125 1.9557 1.60542e+21 1.06761e-05 0.75679 4.96003 -0.484446 
0.008625 0.00628125 2.05206 1.54957e+21 1.03046e-05 -3.14683 7.84704 -1.36058 
0.006375 0.00646875 1.99913 1.63696e+21 1.08858e-05 6.62186 7.05169 3.36769 
0.007125 0.00646875 1.95856 1.5169e+21 1.00874e-05 -1.661 3.74646 -0.449197 
0.006375 0.00665625 2.09166 1.5526e+21 1.03248e-05 -2.67463 -3.29616 3.40063 
0.007125 0.00665625 2.04457 1.49287e+21 9.9276e-06 4.66277 -0.731557 -1.89158 
0.006375 0.00684375 2.05789 1.65269e+21 1.09904e-05 -2.1936 -4.31597 1.16254 
0.007125 0.00684375 1.99209 1.6223e+21 1.07883e-05 1.31912 1.22169 -4.1531 
0.006375 0.00703125 2.00739 1.58448e+21 1.05368e-05 3.92462 -3.30956 -1.46461 
0.007125 0.00703125 1.98043 1.5388e+21 1.0233e-05 -2.0026 5.88597 0.911803 
0.008625 0.00815625 2.10604 1.55967e+21 1.03718e-05 -2.03934 5.94874 -0.802752 
0.006375 0.00946875 1.94199 1.5912e+21 1.05815e-05 1.33931 4.15292 4.19037 
0.006375 0.00965625 1.93277 1.52734e+21 1.01568e-05 -0.507416 1.76621 1.53506 
0.006375 0.0102187 2.03738 1.63016e+21 1.08406e-05 -3.36071 -2.10849 0.678397 
0.006375 0.0104062 1.99876 1.69255e+21 1.12555e-05 -0.884063 -0.49851 3.20416 
0.011625 0.0102187 1.9661 1.5129e+21 1.00608e-05 0.81703 -2.94711 2.81255 
0.007875 0.0105937 1.99319 1.46469e+21 9.74018e-06 1.71861 5.02599 -1.46994 
0.010875 0.0105937 2.08044 1.4476e+21 9.62651e-06 0.79237 0.123219 0.0207222 
0.006375 0.0117188 1.97757 1.45229e+21 9.6577e-06 0.146686 -0.858091 0.326872 
0.006375 0.0119063 1.9701 1.43476e+21 9.54116e-06 1.50118 -0.38353 -0.32775 
0.006375 0.0124688 2.06186 1.50108e+21 9.9822e-06 2.11747 -4.24736 -2.58992 
0.006375 0.0126563 1.83882 1.58303e+21 1.05271e-05 -4.61704 1.88294 -2.35342 
0.013125 0.00984375 2.08788 1.41992e+21 9.44247e-06 0.849347 3.39651 1.5284 
0.012375 0.0100312 1.97154 1.35502e+21 9.01088e-06 4.00381 -2.06457 -2.20464 
0.013875 0.0100312 1.97064 1.3584e+21 9.03339e-06 2.16754 -0.427678 1.75284 
0.016125 0.0102187 2.07664 1.44091e+21 9.58206e-06 2.72964 3.32916 1.17225 
0.016125 0.0104062 1.98262 1.33882e+21 8.90314e-06 1.96246 -2.48046 -1.4555 
0.022875 0.00871875 2.0012 1.38506e+21 9.21063e-06 -1.05503 1.85014 -2.11367 
0.022875 0.00890625 2.02836 1.36352e+21 9.06743e-06 -0.704097 -1.13284 1.04767 
0.023625 0.00890625 1.96663 1.40419e+21 9.33784e-06 -0.0560946 0.513035 0.44302 
0.018375 0.0100312 2.02939 1.36292e+21 9.0634e-06 1.5685 -2.68182 -0.400379 
0.019125 0.0100312 1.97603 1.41482e+21 9.40853e-06 0.324942 -1.00182 1.17136 
0.023625 0.0104062 1.99071 1.35731e+21 9.02609e-06 0.389088 0.761212 -0.341762 
0.019875 0.0216562 1.95053 1.49137e+21 9.91763e-06 -0.264748 0.258388 -3.32734 
0.020625 0.0216562 2.20782 1.39123e+21 9.2517e-06 0.887373 2.46586 1.28583 
0.021375 0.0216562 2.05112 1.41627e+21 9.41818e-06 5.01184 4.95879 -1.21749 
0.022125 0.0216562 1.99209 1.31613e+21 8.75225e-06 -1.13265 -4.94938 -2.58741 
0.01725 0.0024375 1.98541 1.40223e+21 9.32484e-06 -0.0663566 -2.43847 2.45706 
0.0256875 0.0187969 1.94313 1.3439e+21 8.93692e-06 0.0123962 0.529519 -0.109174 
0.0260625 0.0187969 2.09003 1.39207e+21 9.25724e-06 5.18778 0.867411 2.09254 
0.0256875 0.0188906 1.86754 1.33244e+21 8.86069e-06 4.23197 -5.19396 -0.569453 
0.0260625 0.0188906 2.0032 1.29409e+21 8.60571e-06 -2.19579 4.06526 4.51006 
0.01275 0.0031875 2.07354 1.26492e+21 8.4117e-06 -0.447039 0.824642 -1.61191 
0.025125 0.00721875 2.0396 1.47375e+21 9.80043e-06 -3.54697 1.69933 0.26566 
0.024375 0.00740625 2.01649 1.39059e+21 9.24746e-06 -2.60605 -1.10383 0.441374 
0.025125 0.00740625 1.95135 1.39365e+21 9.26778e-06 4.59076 -2.38497 -2.29383 
0.026625 0.00834375 1.98392 1.36999e+21 9.11044e-06 3.20364 1.61405 -0.598441 
0.025875 0.00853125 1.96743 1.3757e+21 9.1484e-06 0.00585678 -0.589115 -2.12104 
0.026625 0.00853125 2.02256 1.32662e+21 8.82199e-06 3.50878 3.86345 0.933327 
0.025875 0.00871875 2.00926 1.42789e+21 9.4955e-06 0.960407 -2.47513 2.30728 
0.026625 0.00890625 1.97019 1.35336e+21 8.99982e-06 -0.759872 3.44183 -2.82582 
0.028125 0.00965625 1.97435 1.35255e+21 8.99449e-06 1.53821 -0.209347 3.97062 
0.029625 0.00965625 1.95926 1.30802e+21 8.69831e-06 -1.90705 -0.471111 -0.188205 
0.025125 0.00984375 1.95291 1.38543e+21 9.2131e-06 -2.1289 3.46101 1.00087 
0.024375 0.0100312 1.98092 1.37984e+21 9.17594e-06 -1.36783 0.401316 0.558104 
0.024375 0.0102187 2.03276 1.34012e+21 8.91183e-06 -0.919133 -0.0604205 1.22785 
0.028125 0.0102187 2.03033 1.37889e+21 9.16961e-06 0.16353 -3.21192 -0.0256205 
0.027375 0.0216562 2.00577 1.41269e+21 9.3944e-06 -2.41519 1.37277 6.17205 
0.028125 0.0216562 2.07882 1.36977e+21 9.109e-06 4.03909 0.741206 2.18171 
0.007875 0.00459375 2.02335 1.63837e+21 1.08952e-05 -0.286708 3.29125 -0.295694 
0.008625 0.00459375 1.94888 1.56692e+21 1.042e-05 -2.66813 7.42622 -0.233347 
0.007875 0.00478125 2.10637 1.55992e+21 1.03734e-05 2.65908 5.97815 -1.88968 
0.008625 0.00478125 1.87572 1.58122e+21 1.05151e-05 -1.86998 3.08262 1.53783 
0.006375 0.00534375 1.94696 1.52888e+21 1.01671e-05 -1.75335 0.988254 0.895989 
0.007125 0.00534375 2.0416 1.63928e+21 1.09012e-05 -4.91896 4.69656 1.66664 
0.006375 0.00553125 2.0759 1.65353e+21 1.0996e-05 4.05773 6.32576 1.97263 
0.007125 0.00553125 2.00656 1.60622e+21 1.06813e-05 -1.34596 6.43402 3.06168 
0.007875 0.00684375 2.00333 1.54293e+21 1.02605e-05 0.615578 1.59792 -2.12569 
0.008625 0.00684375 2.04875 1.57269e+21 1.04584e-05 4.68525 2.32216 -0.837864 
0.007875 0.00703125 1.97561 1.55812e+21 1.03615e-05 1.64275 2.96387 -0.0894179 
0.008625 0.00703125 2.04893 1.59997e+21 1.06398e-05 2.31104 2.24982 2.53453 
0.007875 0.00721875 2.07936 1.57722e+21 1.04885e-05 0.0477116 5.0987 2.48087 
0.007875 0.00740625 1.96579 1.49145e+21 9.91815e-06 0.665198 2.68902 0.100819 
0.008625 0.00740625 1.98133 1.50673e+21 1.00198e-05 2.2217 -0.0925184 -0.0106091 
0.007875 0.00759375 1.99453 1.51126e+21 1.00499e-05 -1.6954 3.23626 0.634949 
0.007875 0.00778125 2.01562 1.51412e+21 1.00689e-05 0.396581 1.11056 0.0258385 
0.008625 0.00778125 2.03419 1.58248e+21 1.05235e-05 -1.70183 -0.0131367 -0.761437 
0.006375 0.00796875 2.10701 1.46997e+21 9.77528e-06 -1.32556 0.020133 -1.11818 
0.006375 0.00815625 2.06455 1.52984e+21 1.01734e-05 5.86635 10.5781 1.16628 
0.007125 0.00815625 2.02 1.52776e+21 1.01596e-05 2.00883 4.17979 -1.74133 
0.006375 0.00834375 2.02155 1.62008e+21 1.07735e-05 -1.66395 0.193118 0.470568 
0.006375 0.00853125 1.90664 1.48995e+21 9.9082e-06 -0.623572 -1.40251 -0.175652 
0.007875 0.00834375 2.01223 1.44866e+21 9.63361e-06 -0.814044 5.57741 1.22409 
0.008625 0.00909375 2.00578 1.51463e+21 1.00723e-05 0.150361 0.475352 0.468712 
0.006375 0.0105937 1.98544 1.51437e+21 1.00705e-05 -2.78996 1.79531 -1.22212 
0.006375 0.0107812 1.97741 1.53133e+21 1.01834e-05 0.093544 -2.07173 1.79883 
0.006375 0.0113437 2.02929 1.48533e+21 9.87744e-06 1.58488 0.00811399 3.03859 
0.006375 0.0115312 1.98471 1.49982e+21 9.97382e-06 -5.00805 -1.1555 0.582555 
0.014625 0.00871875 2.00129 1.39155e+21 9.25379e-06 -2.31656 1.66815 1.02827 
0.014625 0.00890625 1.97315 1.32413e+21 8.80546e-06 -0.0292856 -5.3997 -2.11403 
0.015375 0.00834375 2.04048 1.42832e+21 9.49831e-06 0.402481 1.85359 0.515846 
0.016125 0.00834375 2.06346 1.33472e+21 8.87591e-06 3.60425 -0.695062 1.18642 
0.016125 0.00853125 1.9722 1.38233e+21 9.19251e-06 -0.368576 1.1276 -3.44224 
0.017625 0.00984375 2.01326 1.34979e+21 8.97608e-06 2.25981 -3.16379 2.10848 
0.016875 0.0102187 1.97703 1.38996e+21 9.24326e-06 -0.204614 3.05311 2.17644 
0.017625 0.0102187 1.96664 1.31465e+21 8.74243e-06 1.28244 -2.35077 0.482263 
0.014625 0.0105937 2.03714 1.44012e+21 9.57678e-06 -0.570807 -2.83267 0.732274 
0.013875 0.0107812 1.97258 1.41717e+21 9.42419e-06 0.19025 0.316422 -0.192896 
0.016875 0.0105937 2.0248 1.41875e+21 9.43469e-06 -0.949315 0.980857 -1.11982 
0.021375 0.00759375 1.97874 1.3026e+21 8.66232e-06 1.91994 -0.223316 -0.603588 
0.022125 0.00759375 2.02043 1.4278e+21 9.49486e-06 1.69357 2.88826 1.59838 
0.021375 0.00778125 1.9333 1.38758e+21 9.22738e-06 0.854471 -3.3776 -3.27838 
0.022125 0.00778125 1.96876 1.42394e+21 9.46918e-06 2.15779 1.69477 -2.44891 
0.019125 0.00871875 2.0256 1.39414e+21 9.27106e-06 1.30619 -1.73411 2.08661 
0.019125 0.00890625 2.01841 1.347e+21 8.95757e-06 -2.39131 3.14101 0.384622 
0.019875 0.00890625 1.96005 1.41308e+21 9.397e-06 -2.84479 0.73538 -0.651696 
0.020625 0.00890625 1.94383 1.36861e+21 9.10123e-06 0.758205 -0.184955 -0.7268 
0.022875 0.00834375 1.89635 1.32116e+21 8.78571e-06 1.02395 -3.35279 -0.0466689 
0.023625 0.00834375 1.99914 1.33744e+21 8.89395e-06 -2.04626 1.00483 -2.59241 
0.022875 0.00853125 2.01495 1.40754e+21 9.36013e-06 1.21667 -1.18844 1.43861 
0.023625 0.00853125 2.06346 1.41417e+21 9.40424e-06 0.030119 -1.42253 -1.03299 
0.020625 0.00984375 1.98033 1.33484e+21 8.87669e-06 -0.733212 0.154704 -1.93049 
0.019125 0.0109687 1.93404 1.36715e+21 9.09155e-06 1.47763 -2.60439 -2.12275 
0.018375 0.0126563 1.99854 1.38189e+21 9.18955e-06 1.42663 1.11082 -2.63833 
0.028875 0.00796875 1.93869 1.41316e+21 9.3975e-06 3.24869 0.127786 -1.18517 
0.029625 0.00796875 2.05951 1.35351e+21 9.00082e-06 -0.236325 0.299136 -0.56431 
0.028875 0.00815625 1.95185 1.32378e+21 8.80313e-06 2.00691 -1.77686 -1.19206 
0.029625 0.00815625 2.01316 1.33072e+21 8.84927e-06 -4.56858 -5.78578 -0.212175 
0.022125 0.00946875 1.95218 1.38531e+21 9.21234e-06 -0.776424 2.15668 2.08609 
0.021375 0.00965625 1.90955 1.37717e+21 9.15817e-06 -1.12529 -0.729151 -2.41251 
0.022125 0.00965625 1.96516 1.35138e+21 8.9867e-06 0.812267 -0.831202 -2.19956 
0.023625 0.00946875 2.13071 1.30284e+21 8.66389e-06 -0.849592 -1.4554 -1.60918 
0.0204375 0.0201094 2.11896 1.40927e+21 9.37163e-06 1.26695 1.16702 1.83633 
0.0208125 0.0201094 1.94395 1.46105e+21 9.71595e-06 3.14337 -1.04448 -1.76764 
0.0204375 0.0202031 1.98834 1.36463e+21 9.07482e-06 2.12578 0.0466399 -0.738415 
0.0208125 0.0202031 2.07591 1.25708e+21 8.35956e-06 -0.185481 -0.0895027 0.49333 
0.019875 0.00496875 1.98852 1.40311e+21 9.33067e-06 0.071899 1.20231 -0.492888 
0.020625 0.00496875 2.09692 1.32794e+21 8.83081e-06 -0.375424 1.05442 2.65012 
0.019875 0.00515625 1.95443 1.32136e+21 8.78702e-06 6.28117 -3.3468 -1.00709 
0.020625 0.00515625 1.97677 1.31258e+21 8.72864e-06 4.16358 1.73154 1.63716 
0.024375 0.00646875 2.0427 1.46091e+21 9.71506e-06 -0.00954455 0.446345 1.22196 
0.025125 0.00646875 2.06359 1.34019e+21 8.91226e-06 2.35837 -3.44119 -2.37628 
0.024375 0.00665625 1.98954 1.41296e+21 9.39617e-06 -1.75428 -3.41425 1.11319 
0.025125 0.00665625 2.03781 1.35005e+21 8.9778e-06 2.74937 -1.71338 -0.616305 
0.025875 0.00646875 1.9949 1.36993e+21 9.11005e-06 -1.06211 0.627748 2.03745 
0.026625 0.00646875 1.9847 1.42767e+21 9.494e-06 1.05989 -4.00819 1.21779 
0.025875 0.00665625 1.96234 1.32794e+21 8.83081e-06 -1.6826 -1.2067 -0.00618697 
0.026625 0.00665625 1.92727 1.41976e+21 9.44139e-06 0.409761 -0.436749 4.34315 
0.025125 0.00928125 2.0229 1.32916e+21 8.83892e-06 2.64843 -2.43593 3.23219 
0.026625 0.00984375 2.08628 1.34749e+21 8.96079e-06 -3.67254 -1.73163 0.141672 
0.025875 0.0100312 2.03027 1.41369e+21 9.40103e-06 4.69882 0.27446 2.66152 
0.028125 0.0109687 1.99733 1.37644e+21 9.1533e-06 2.86211 1.30353 0.699963 
0.028875 0.0216562 1.95429 1.45203e+21 9.65601e-06 5.55177 -2.13032 1.28555 
0.029625 0.0216562 1.84879 1.15161e+21 7.65822e-06 -0.773562 -1.82181 11.3784 
0.007875 0.00534375 1.86128 1.60751e+21 1.06899e-05 0.108359 4.68961 2.0684 
0.008625 0.00534375 1.95735 1.64987e+21 1.09716e-05 0.797707 4.58575 2.13023 
0.007875 0.00553125 1.95704 1.70648e+21 1.13481e-05 -3.5842 0.0879808 0.764486 
0.008625 0.00553125 1.95816 1.5612e+21 1.0382e-05 -0.74452 -0.0720146 -0.383813 
0.007875 0.00646875 1.99311 1.63412e+21 1.08669e-05 2.12882 6.83249 0.318432 
0.008625 0.00646875 2.02017 1.60263e+21 1.06575e-05 0.666759 2.77982 -0.466357 
0.008625 0.00665625 2.0079 1.62039e+21 1.07756e-05 -1.54556 6.43401 -1.2537 
0.006375 0.00759375 1.90148 1.51461e+21 1.00722e-05 1.51938 3.80069 -1.36672 
0.006375 0.00778125 2.0549 1.55175e+21 1.03191e-05 2.98337 0.558036 0.909593 
0.007125 0.00778125 1.96641 1.56648e+21 1.04171e-05 -3.83414 1.0649 1.29687 
0.006375 0.00909375 1.97471 1.42113e+21 9.4505e-06 1.80084 -2.06144 -3.77331 
0.006375 0.00928125 2.05365 1.5296e+21 1.01719e-05 -0.644743 -1.59483 5.29965 
0.013875 0.00759375 2.08095 1.36371e+21 9.06868e-06 -0.935453 0.423187 -3.37467 
0.014625 0.00759375 1.96211 1.35477e+21 9.00921e-06 -1.59738 1.20455 4.32931 
0.014625 0.00778125 1.99034 1.38467e+21 9.20803e-06 0.773314 1.45712 5.18415 
0.016875 0.00796875 1.95499 1.33362e+21 8.86859e-06 0.296231 -2.55789 -1.4826 
0.017625 0.00796875 2.01275 1.4089e+21 9.36916e-06 0.50928 -0.438325 -1.97354 
0.016875 0.00815625 1.98447 1.35847e+21 9.03382e-06 1.50899 -0.578374 -0.577748 
0.017625 0.00815625 1.95549 1.41536e+21 9.41215e-06 -1.02256 -1.39193 1.03202 
0.014625 0.00928125 2.0015 1.41574e+21 9.41467e-06 -2.33799 -0.193849 0.643232 
0.012375 0.00946875 1.92957 1.47218e+21 9.78999e-06 2.97008 1.52147 -2.47852 
0.013125 0.00946875 1.94415 1.45105e+21 9.64951e-06 -0.309478 -1.08249 0.224786 
0.014625 0.00965625 1.9946 1.35138e+21 8.9867e-06 1.2534 -0.429617 -3.80202 
0.015375 0.00909375 1.96503 1.43746e+21 9.55913e-06 -0.898626 -2.75884 -1.53347 
0.015375 0.00928125 1.99216 1.42671e+21 9.48765e-06 0.322719 0.0271516 -0.0162712 
0.018375 0.00609375 2.05459 1.35394e+21 9.00372e-06 2.54278 -0.687072 0.348587 
0.019125 0.00609375 2.11205 1.38737e+21 9.22604e-06 0.19867 -1.01587 3.10161 
0.018375 0.00628125 1.89621 1.38019e+21 9.17829e-06 0.385836 -1.63635 0.821759 
0.019125 0.00628125 1.98248 1.46848e+21 9.76542e-06 2.00583 -0.279038 1.72938 
0.018375 0.00684375 2.02852 1.36432e+21 9.07275e-06 1.64608 0.364529 -0.952696 
0.019125 0.00684375 1.98898 1.35606e+21 9.01777e-06 -1.90088 3.54378 1.29475 
0.018375 0.00703125 1.98273 1.37945e+21 9.17334e-06 2.86554 -0.0704322 3.20753 
0.019125 0.00703125 1.9726 1.34726e+21 8.95926e-06 1.86089 0.60021 0.776504 
0.018375 0.00815625 2.01915 1.37512e+21 9.14455e-06 -0.85167 -0.338017 -0.209025 
0.019125 0.00815625 1.93167 1.40287e+21 9.3291e-06 4.08567 0.887546 -1.48396 
0.022875 0.00796875 2.00463 1.30096e+21 8.65136e-06 3.183 -0.317601 -2.75574 
0.023625 0.00796875 1.99337 1.36061e+21 9.04804e-06 -0.23997 -0.277124 -0.451457 
0.022875 0.00815625 2.0226 1.34598e+21 8.95077e-06 -0.921876 0.120381 2.71715 
0.023625 0.00815625 2.05435 1.32239e+21 8.7939e-06 0.757791 2.29591 0.725015 
0.021375 0.00834375 2.00032 1.45002e+21 9.64263e-06 0.099801 0.730125 1.49013 
0.022125 0.00834375 2.02022 1.38898e+21 9.23672e-06 -0.743335 0.545388 -3.4464 
0.021375 0.00853125 1.97144 1.31998e+21 8.77788e-06 -0.913257 -0.240191 3.71536 
0.022125 0.00853125 1.94891 1.35713e+21 9.0249e-06 4.62346 0.364466 4.3881 
0.021375 0.00871875 2.0306 1.39285e+21 9.26243e-06 1.44041 0.239745 1.289 
0.021375 0.00890625 2.03218 1.39783e+21 9.29559e-06 -1.45442 0.653597 -2.9599 
0.022125 0.00890625 1.9718 1.33811e+21 8.89842e-06 1.03309 2.5038 -1.66787 
0.018375 0.0102187 1.99491 1.34566e+21 8.94865e-06 1.34514 -0.610966 0.312992 
0.018375 0.0104062 2.04037 1.30619e+21 8.68616e-06 3.31608 -0.616265 0.773884 
0.019125 0.0104062 2.03221 1.3225e+21 8.79465e-06 0.541826 1.21854 0.252723 
0.023625 0.00984375 2.0577 1.38313e+21 9.19781e-06 -1.1674 -0.334946 -0.21833 
0.018375 0.0177187 0 0 0 0 0 0 
0.018375 0.0179062 0 0 0 0 0 0 
0.018375 0.0195938 0 0 0 0 0 0 
0.018375 0.0197812 0 0 0 0 0 0 
0.022875 0.0216562 2.10347 1.33043e+21 8.84738e-06 -7.06236 -1.03735 1.95147 
0.023625 0.0216562 1.93919 1.17665e+21 7.8247e-06 -4.29053 1.0949 -1.97659 
0.01575 0.0016875 2.00775 1.4604e+21 9.71166e-06 2.43299 0.891143 0.223182 
0.01725 0.0016875 2.04804 1.40842e+21 9.36601e-06 0.40584 -1.82205 -4.31098 
0.01575 0.0020625 1.97164 1.46101e+21 9.71572e-06 2.31898 0.143308 1.26443 
0.01725 0.0020625 2.01117 1.38419e+21 9.20484e-06 0.466209 -1.186 1.85041 
0.027375 0.00534375 2.07035 1.36395e+21 9.07024e-06 2.15214 -2.57987 -2.81687 
0.028125 0.00534375 2.1158 1.3703e+21 9.1125e-06 0.873198 2.58856 5.19399 
0.027375 0.00553125 1.98068 1.39342e+21 9.26623e-06 -2.66467 2.29416 0.0521322 
0.028125 0.00553125 2.05612 1.44457e+21 9.6064e-06 1.37509 4.15658 -2.31436 
0.027375 0.00759375 2.0221 1.42482e+21 9.47504e-06 -0.689298 1.49136 1.2624 
0.028125 0.00759375 1.97068 1.36222e+21 9.05877e-06 0.684519 -2.03293 -0.490093 
0.027375 0.00778125 1.96303 1.3803e+21 9.17902e-06 -1.09631 1.90156 -1.3701 
0.028125 0.00778125 2.03861 1.34685e+21 8.95655e-06 0.0664138 0.687973 0.591857 
0.028875 0.00759375 2.09997 1.28025e+21 8.51366e-06 1.34256 4.35114 -4.0513 
0.029625 0.00759375 1.94861 1.37862e+21 9.16779e-06 -1.16463 -2.95779 1.72525 
0.028875 0.00778125 1.9336 1.35558e+21 9.01459e-06 0.0751064 -3.2943 1.78694 
0.027375 0.00834375 2.03015 1.43781e+21 9.56145e-06 0.653803 -2.07876 -1.5596 
0.028125 0.00834375 2.02044 1.33744e+21 8.89395e-06 -0.571476 -3.2656 5.46921 
0.028125 0.00853125 2.02001 1.37968e+21 9.17487e-06 1.09116 -0.848241 2.03393 
0.028875 0.00834375 2.01793 1.351e+21 8.98416e-06 2.04456 1.78422 2.11957 
0.029625 0.00834375 2.01454 1.26012e+21 8.3798e-06 -1.23813 1.17995 -2.9933 
0.029625 0.00853125 1.98074 1.34784e+21 8.96314e-06 3.93526 2.40341 1.1731 
0.016875 0.00721875 2.1017 1.37027e+21 9.11231e-06 0.565342 -2.19268 -2.36736 
0.017625 0.00721875 2.03183 1.39065e+21 9.24785e-06 0.560674 -1.29946 -3.933 
0.016875 0.00740625 1.92091 1.3799e+21 9.17632e-06 -0.698146 -0.396156 -2.48008 
0.017625 0.00740625 1.99303 1.36003e+21 9.04422e-06 -1.05114 1.54303 -4.2651 
0.021375 0.00909375 1.99996 1.42875e+21 9.50119e-06 1.47625 -0.948898 -1.25245 
0.022125 0.00909375 2.10777 1.36154e+21 9.05427e-06 4.25281 -1.71497 1.92822 
0.022125 0.00928125 1.9271 1.41452e+21 9.40656e-06 0.0201492 1.12386 0.746598 
0.022875 0.00909375 2.03832 1.2906e+21 8.58252e-06 1.09531 -2.74105 0.803589 
0.022875 0.00928125 1.97448 1.43891e+21 9.56874e-06 3.06364 0.712366 -3.18301 
0.023625 0.00928125 1.99544 1.39013e+21 9.24438e-06 2.13209 0.866171 1.62481 
0.0294375 0.0201094 1.96833 1.26069e+21 8.38356e-06 0.376524 2.44682 -0.123493 
0.0298125 0.0201094 1.93479 1.29445e+21 8.60812e-06 -1.44394 4.73913 4.5818 
0.0294375 0.0202031 2.02653 1.44082e+21 9.58146e-06 -5.5575 -1.35885 5.51195 
0.0298125 0.0202031 2.07843 1.36688e+21 9.08972e-06 1.13385 1.4872 0.147478 
0.0264375 0.0208594 1.88467 1.33038e+21 8.84705e-06 3.23613 -0.791098 5.25081 
0.0268125 0.0208594 1.93433 1.48881e+21 9.90061e-06 -1.04168 -5.99848 0.266199 
0.0264375 0.0209531 2.04643 1.35252e+21 8.99425e-06 -2.45674 -0.911518 3.4674 
0.0268125 0.0209531 2.04629 1.33091e+21 8.85057e-06 5.24855 -4.48319 -0.411394 
0.0294375 0.0206719 1.96435 1.41034e+21 9.37876e-06 -2.86712 1.76081 -0.0894602 
0.0298125 0.0206719 1.96733 1.31617e+21 8.75253e-06 0.148402 1.59502 0.466623 
0.0294375 0.0207656 1.90258 1.42141e+21 9.45239e-06 1.15563 1.67581 4.24314 
0.0298125 0.0207656 1.99093 1.43449e+21 9.53938e-06 -1.46714 0.104333 -3.0256 
0.01125 0.0076875 0 0 0 0 0 0 
0.01125 0.0080625 0 0 0 0 0 0 
0.01875 0.0016875 2.10609 1.37154e+21 9.12071e-06 3.2664 -1.24646 -2.00252 
0.02025 0.0016875 1.94288 1.28267e+21 8.52976e-06 0.0874353 -3.15647 1.82448 
0.01875 0.0020625 1.99337 1.37596e+21 9.15011e-06 -0.867467 -0.706492 -0.508941 
0.02025 0.0020625 1.94152 1.33617e+21 8.88555e-06 0.858368 -2.34508 -0.870461 
0.02175 0.0016875 2.02189 1.34639e+21 8.95346e-06 0.436268 -1.18863 0.680955 
0.02325 0.0016875 2.03638 1.30279e+21 8.66356e-06 -0.776247 -3.3974 -3.25672 
0.02175 0.0020625 2.00789 1.41162e+21 9.3873e-06 2.15086 1.9486 1.98411 
0.02325 0.0020625 1.95788 1.33069e+21 8.84906e-06 0.163435 -1.41144 -2.8133 
0.025875 0.00721875 2.01569 1.40947e+21 9.37296e-06 0.846457 2.00927 -4.39644 
0.026625 0.00721875 2.05126 1.33265e+21 8.86209e-06 2.5395 0.462216 0.289303 
0.025875 0.00740625 1.97581 1.34322e+21 8.93243e-06 4.66637 -1.05632 0.675432 
0.026625 0.00740625 1.96923 1.30349e+21 8.66822e-06 1.6516 -0.146585 2.20354 
0.025875 0.00759375 2.02702 1.29515e+21 8.61277e-06 -2.30301 -0.420343 -1.7241 
0.026625 0.00759375 2.03115 1.30708e+21 8.69206e-06 -0.780514 1.29232 0.437875 
0.025875 0.00778125 2.01879 1.32067e+21 8.78245e-06 0.235085 -2.61356 3.84859 
0.024375 0.00796875 1.94481 1.35777e+21 9.02915e-06 -0.76488 2.29717 1.98076 
0.025125 0.00815625 2.02902 1.39316e+21 9.26451e-06 -0.519639 2.06971 -2.59654 
0.024375 0.00834375 2.01601 1.38356e+21 9.20064e-06 3.60697 -1.74576 -0.149438 
0.025125 0.00834375 2.00524 1.34422e+21 8.93906e-06 2.62992 -4.43689 -0.10982 
0.024375 0.00853125 2.0764 1.38101e+21 9.18369e-06 0.58439 2.21713 0.367841 
0.025125 0.00853125 2.06819 1.36376e+21 9.06901e-06 -0.44873 1.70388 1.13139 
0.006375 0.00384375 1.973 1.50166e+21 9.98606e-06 2.30478 1.86218 3.72122 
0.007125 0.00384375 1.97761 1.61061e+21 1.07105e-05 -4.8921 8.01726 1.01986 
0.006375 0.00403125 1.9798 1.56868e+21 1.04317e-05 -2.97657 3.56499 -0.769639 
0.007125 0.00403125 2.10832 1.56939e+21 1.04364e-05 3.65724 6.26607 3.8318 
0.007875 0.00571875 2.0022 1.56939e+21 1.04364e-05 -4.46307 7.12679 1.60311 
0.008625 0.00571875 1.98033 1.56741e+21 1.04233e-05 -4.72945 8.47454 -3.13058 
0.007875 0.00590625 1.94857 1.5943e+21 1.06021e-05 4.94447 3.53538 0.490265 
0.006375 0.00609375 2.05928 1.64368e+21 1.09304e-05 -6.11709 -0.128586 -3.1041 
0.007125 0.00609375 2.09941 1.5861e+21 1.05476e-05 0.70859 4.51936 1.9856 
0.006375 0.00628125 1.82579 1.54731e+21 1.02896e-05 0.396758 -0.0446277 -0.664697 
0.007125 0.00628125 2.01626 1.4811e+21 9.84929e-06 -2.71641 0.750564 0.615521 
0.015375 0.00571875 2.01354 1.35367e+21 9.0019e-06 -0.629673 1.21276 0.457182 
0.016125 0.00571875 1.97417 1.34971e+21 8.97558e-06 4.44965 -2.30376 0.526949 
0.015375 0.00590625 2.02485 1.29345e+21 8.60144e-06 2.18963 0.821556 -1.0559 
0.016125 0.00590625 1.95673 1.39501e+21 9.27681e-06 3.8271 2.70905 5.22253 
0.016875 0.00571875 1.98581 1.31805e+21 8.76501e-06 1.32898 0.00611983 -1.20932 
0.017625 0.00571875 1.97529 1.40512e+21 9.34408e-06 1.86545 -1.23003 2.99928 
0.016875 0.00590625 1.98972 1.35094e+21 8.98373e-06 0.566563 -0.634901 1.10901 
0.017625 0.00590625 1.96529 1.43908e+21 9.5699e-06 -0.879961 0.857426 1.7877 
0.012375 0.00796875 1.86328 1.40606e+21 9.35027e-06 9.84433 16.9566 -1.79169 
0.013125 0.00796875 1.96718 1.4018e+21 9.32194e-06 -1.69727 -1.60033 0.40988 
0.012375 0.00815625 1.98869 1.22803e+21 8.16643e-06 -9.71477 -8.68794 13.8113 
0.015375 0.00796875 1.97228 1.41316e+21 9.3975e-06 -0.140513 0.0191943 0.66152 