ITEM: TIMESTEP
500000
ITEM: NUMBER OF CELLS
38553
ITEM: BOX BOUNDS oo ao pp
0 0.12
0 0.03
-0.1 0.1
ITEM: CELLS xc yc f_out[1] f_out[2] f_out[3] f_out[4] f_out[5] f_out[6] 
0.003 0.00375 0 0 0 0 0 0 
0.003 0.00675 0 0 0 0 0 0 
0.003 0.00975 0 0 0 0 0 0 
0.003 0.01275 0 0 0 0 0 0 
0.003 0.01575 0 0 0 0 0 0 
0.003 0.01875 0 0 0 0 0 0 
0.003 0.02175 0 0 0 0 0 0 
0.003 0.02475 0 0 0 0 0 0 
0.003 0.02775 0 0 0 0 0 0 
0.009 0.01575 0 0 0 0 0 0 
0.009 0.01875 0 0 0 0 0 0 
0.009 0.02175 0 0 0 0 0 0 
0.009 0.02475 0 0 0 0 0 0 
0.009 0.02775 0 0 0 0 0 0 
0.003 0.00525 0 0 0 0 0 0 
0.003 0.00825 0 0 0 0 0 0 
0.003 0.01125 0 0 0 0 0 0 
0.003 0.01425 0 0 0 0 0 0 
0.003 0.01725 0 0 0 0 0 0 
0.003 0.02025 0 0 0 0 0 0 
0.003 0.02325 0 0 0 0 0 0 
0.003 0.02625 0 0 0 0 0 0 
0.003 0.02925 0 0 0 0 0 0 
0.009 0.01425 0 0 0 0 0 0 
0.009 0.01725 0 0 0 0 0 0 
0.009 0.02025 0 0 0 0 0 0 
0.009 0.02325 0 0 0 0 0 0 
0.009 0.02625 0 0 0 0 0 0 
0.009 0.02925 0 0 0 0 0 0 
0.015 0.01425 0 0 0 0 0 0 
0.015 0.01725 0 0 0 0 0 0 
0.015 0.02025 0 0 0 0 0 0 
0.015 0.02325 0 0 0 0 0 0 
0.015 0.02625 0 0 0 0 0 0 
0.015 0.02925 0 0 0 0 0 0 
0.0015 0.000375 0 0 0 0 0 0 
0.0015 0.001125 0 0 0 0 0 0 
0.0105 0.000375 1.94771 6.06457e+21 4.03294e-05 4.89925 10.767 -2.39844 
0.0075 0.013125 0 0 0 0 0 0 
0.0105 0.013125 0 0 0 0 0 0 
0.0015 0.001875 0 0 0 0 0 0 
0.0015 0.002625 0 0 0 0 0 0 
0.0045 0.002625 0 0 0 0 0 0 
0.00525 0.0001875 1.7851 1.09555e+22 7.28542e-05 49.11 0.357649 -3.77369 
0.00675 0.0001875 1.65611 6.35299e+21 4.22474e-05 63.282 8.90113 -3.44947 
0.00825 0.0001875 2.01174 4.3309e+21 2.88005e-05 30.3097 4.3931 -4.04259 
0.00825 0.0005625 1.87475 4.95966e+21 3.29817e-05 31.2896 8.47034 -0.133267 
0.01125 0.0039375 0 0 0 0 0 0 
0.01125 0.0043125 0 0 0 0 0 0 
0.01125 0.0061875 0 0 0 0 0 0 
0.01125 0.0065625 0 0 0 0 0 0 
0.01125 0.0069375 0 0 0 0 0 0 
0.01125 0.0073125 0 0 0 0 0 0 
0.01125 0.0091875 0 0 0 0 0 0 
0.00375 0.0020625 0 0 0 0 0 0 
0.00525 0.0020625 0 0 0 0 0 0 
0.01125 0.0054375 0 0 0 0 0 0 
0.01125 0.0058125 0 0 0 0 0 0 
0.01125 0.0076875 0 0 0 0 0 0 
0.01125 0.0080625 0 0 0 0 0 0 
0.01125 0.0084375 0 0 0 0 0 0 
0.01125 0.0088125 0 0 0 0 0 0 
0.01125 0.0031875 0 0 0 0 0 0 
0.01125 0.0035625 0 0 0 0 0 0 
0.00975 0.0016875 1.98711 4.57453e+21 3.04206e-05 0.884601 11.6983 -4.91846 
0.01125 0.0016875 0 0 0 0 0 0 
0.01125 0.0020625 0 0 0 0 0 0 
0.01125 0.0046875 0 0 0 0 0 0 
0.01125 0.0050625 0 0 0 0 0 0 
0.01275 0.0016875 1.98437 2.50561e+21 1.66623e-05 -0.168511 -1.31915 1.21432 
0.01275 0.0020625 1.96369 2.32784e+21 1.54801e-05 -1.82281 -2.09863 -1.64335 
0.01275 0.0024375 2.10198 2.29836e+21 1.52841e-05 -0.445232 1.724 1.7172 
0.003375 0.00046875 1.95777 1.39466e+22 9.27447e-05 25.8969 4.33137 2.11726 
0.004125 0.00046875 1.95689 1.26758e+22 8.42941e-05 35.8889 -2.70104 -0.744404 
0.003375 0.00065625 1.86445 1.30253e+22 8.6618e-05 21.1869 -1.1137 3.93612 
0.004125 0.00065625 1.80336 1.1779e+22 7.83305e-05 32.9251 -3.00556 2.36633 
0.004875 0.00046875 1.92911 1.01406e+22 6.74353e-05 39.0163 -1.27337 5.01796 
0.005625 0.00046875 1.76347 8.76442e+21 5.82834e-05 54.5889 1.61429 -1.43201 
0.004875 0.00065625 1.76876 1.08477e+22 7.21374e-05 43.3334 0.523519 0.698536 
0.005625 0.00065625 1.78278 8.89893e+21 5.91779e-05 44.8332 -3.64218 -0.36244 
0.003375 0.00084375 1.99753 1.40313e+22 9.3308e-05 30.35 -7.25996 0.768476 
0.004125 0.00084375 1.93836 1.21795e+22 8.09937e-05 34.8267 0.279642 -2.44596 
0.004875 0.00084375 1.79129 1.10796e+22 7.36793e-05 40.4384 -0.0758348 -1.44995 
0.005625 0.00084375 1.76428 9.80531e+21 6.52053e-05 45.4871 -0.976026 1.02252 
0.004875 0.00103125 1.92342 1.05357e+22 7.00626e-05 36.1711 -5.90157 -0.560949 
0.005625 0.00103125 1.81076 8.9883e+21 5.97722e-05 39.9045 -1.62493 -1.77472 
0.005625 0.00121875 1.92519 8.58055e+21 5.70606e-05 35.278 -0.0381814 0.689878 
0.006375 0.00084375 1.73871 7.13601e+21 4.74545e-05 56.7197 -0.561614 -0.695128 
0.007125 0.00084375 1.75007 5.43249e+21 3.61261e-05 47.7343 5.60936 0.432245 
0.006375 0.00103125 1.75351 6.21169e+21 4.13078e-05 48.3135 4.57572 -1.822 
0.007125 0.00103125 1.85053 5.07032e+21 3.37176e-05 49.4749 12.8669 0.674725 
0.006375 0.00121875 1.74121 6.47255e+21 4.30425e-05 45.9229 11.5727 -1.68407 
0.007125 0.00121875 1.80097 4.96817e+21 3.30384e-05 46.8529 19.5871 0.176363 
0.006375 0.00140625 1.85111 5.98781e+21 3.98189e-05 42.4483 12.9813 1.52509 
0.007125 0.00140625 1.83145 4.18503e+21 2.78304e-05 33.6883 16.9439 -0.852707 
0.006375 0.00309375 2.00828 3.313e+21 2.20314e-05 0.480254 5.22147 1.13185 
0.007125 0.00309375 1.94427 3.05097e+21 2.0289e-05 1.07485 6.06868 -3.28169 
0.006375 0.00328125 1.95938 3.3565e+21 2.23207e-05 -2.06831 7.93678 1.18242 
0.007125 0.00328125 1.96287 3.48714e+21 2.31895e-05 -1.92208 9.25699 -0.829564 
0.007875 0.00328125 1.93879 3.51473e+21 2.3373e-05 -3.69684 11.9556 0.450207 
0.008625 0.00328125 1.99608 3.8562e+21 2.56438e-05 0.130614 18.0469 -1.87089 
0.007875 0.00346875 2.02367 3.37043e+21 2.24133e-05 -0.306381 14.2279 2.48687 
0.008625 0.00346875 1.89314 3.40958e+21 2.26737e-05 -1.05244 15.435 0.212046 
0.006375 0.00384375 2.03356 3.31801e+21 2.20648e-05 -0.853608 7.75768 3.15995 
0.006375 0.00403125 2.02009 3.22159e+21 2.14236e-05 -0.0500978 2.08764 0.338698 
0.006375 0.00421875 2.01152 3.25949e+21 2.16756e-05 -0.482891 4.43951 -1.77226 
0.006375 0.00440625 1.90337 3.51089e+21 2.33474e-05 2.63336 7.39001 0.813134 
0.006375 0.00609375 1.89388 3.08886e+21 2.05409e-05 1.64464 1.39934 1.01717 
0.006375 0.00628125 2.00062 3.03719e+21 2.01973e-05 -1.25874 3.40335 -3.25367 
0.006375 0.00646875 2.0207 3.28049e+21 2.18152e-05 1.55108 4.30083 -0.889882 
0.010125 0.00609375 0 0 0 0 0 0 
0.010125 0.00628125 0 0 0 0 0 0 
0.006375 0.00703125 2.01056 3.3108e+21 2.20168e-05 -1.85615 6.38421 0.424928 
0.006375 0.00721875 1.98312 3.08076e+21 2.04871e-05 -0.963111 6.84237 -0.518706 
0.010125 0.00684375 0 0 0 0 0 0 
0.010125 0.00703125 0 0 0 0 0 0 
0.010125 0.00721875 0 0 0 0 0 0 
0.010125 0.00740625 0 0 0 0 0 0 
0.010125 0.00946875 1.914 2.68804e+21 1.78754e-05 -0.44354 -0.0695285 -2.30437 
0.010875 0.00946875 1.9814 2.74276e+21 1.82393e-05 5.90461 -2.62054 0.458672 
0.011625 0.00946875 1.86968 2.67436e+21 1.77845e-05 1.48148 5.15669 4.53515 
0.007875 0.00159375 1.90637 4.14715e+21 2.75786e-05 24.3276 20.8553 0.0190065 
0.008625 0.00159375 1.9858 4.18976e+21 2.78619e-05 7.42735 15.6367 4.88004 
0.007875 0.00178125 1.93523 4.17444e+21 2.776e-05 13.617 21.5677 -0.388308 
0.008625 0.00178125 1.9466 4.19985e+21 2.7929e-05 6.2115 17.441 3.00225 
0.007875 0.00196875 2.0021 3.76538e+21 2.50397e-05 6.17086 23.8065 -1.23154 
0.008625 0.00196875 1.97816 4.12754e+21 2.74482e-05 3.2687 18.795 2.07401 
0.007875 0.00215625 1.9491 3.86835e+21 2.57245e-05 7.91572 20.7139 -3.73607 
0.008625 0.00215625 2.03104 3.98383e+21 2.64924e-05 1.84542 17.2009 -1.1763 
0.007875 0.00234375 1.94273 3.69892e+21 2.45978e-05 4.69329 16.1394 0.402378 
0.007875 0.00253125 1.979 3.60825e+21 2.39948e-05 2.89284 21.8284 -3.89403 
0.008625 0.00253125 1.99108 3.60825e+21 2.39948e-05 0.915042 15.9244 1.77504 
0.006375 0.00271875 1.9255 3.44214e+21 2.28902e-05 -0.539595 1.78715 -5.10857 
0.007125 0.00271875 2.04174 3.5051e+21 2.33089e-05 -0.873814 11.575 -4.94961 
0.006375 0.00290625 1.93773 3.22737e+21 2.1462e-05 -0.825354 7.00072 6.89003 
0.007125 0.00290625 1.93287 3.41526e+21 2.27115e-05 -4.12009 4.90557 -1.03255 
0.007875 0.00271875 1.95406 3.69659e+21 2.45823e-05 1.84226 16.9543 1.02888 
0.007875 0.00290625 1.93257 3.50483e+21 2.33071e-05 -1.43203 13.1933 -1.48551 
0.008625 0.00290625 1.98066 3.69565e+21 2.45761e-05 -2.2124 15.8506 1.57799 
0.006375 0.00459375 1.91283 3.29368e+21 2.1903e-05 0.822777 5.68301 -0.608124 
0.006375 0.00478125 2.03392 2.89378e+21 1.92436e-05 3.24473 3.5275 5.54852 
0.006375 0.00496875 1.93817 3.14333e+21 2.09031e-05 -0.520703 3.52479 -1.38375 
0.006375 0.00515625 1.99794 3.1031e+21 2.06356e-05 -3.95202 6.6476 0.806152 
0.006375 0.00534375 2.02325 3.05776e+21 2.03341e-05 -0.388188 5.47418 0.766148 
0.006375 0.00553125 2.05237 3.03467e+21 2.01806e-05 -0.325433 6.15818 0.827068 
0.006375 0.00571875 1.98983 3.1504e+21 2.09501e-05 1.56043 4.78258 0.195347 
0.006375 0.00590625 2.05901 3.12224e+21 2.07629e-05 3.40053 3.20091 3.31373 
0.010125 0.00534375 0 0 0 0 0 0 
0.009375 0.00553125 2.07116 3.30663e+21 2.19891e-05 1.93526 8.89104 0.039603 
0.010125 0.00553125 0 0 0 0 0 0 
0.006375 0.00778125 1.98922 3.20713e+21 2.13274e-05 -1.34881 2.1723 1.70201 
0.006375 0.00834375 1.8624 2.89682e+21 1.92638e-05 0.637958 5.38103 -0.735444 
0.010125 0.00834375 0 0 0 0 0 0 
0.010125 0.00853125 0 0 0 0 0 0 
0.016875 0.00459375 2.02476 2.59429e+21 1.7252e-05 0.822895 1.41752 0.415543 
0.017625 0.00478125 2.0211 2.40024e+21 1.59616e-05 0.6284 0.950983 1.66674 
0.015375 0.00496875 2.00976 2.64677e+21 1.7601e-05 -1.58594 0.135924 -0.617626 
0.016875 0.00515625 2.04698 2.34859e+21 1.56181e-05 3.13443 -1.82269 0.612557 
0.012375 0.00796875 1.88338 2.38603e+21 1.58671e-05 2.02382 3.52052 -6.77382 
0.012375 0.00815625 1.97293 2.68502e+21 1.78554e-05 9.27202 1.61518 -2.73875 
0.01125 0.0024375 0 0 0 0 0 0 
0.01125 0.0028125 0 0 0 0 0 0 
0.006375 0.00346875 2.04353 3.29131e+21 2.18872e-05 1.26801 4.23636 -7.10047 
0.007125 0.00346875 1.97442 3.23992e+21 2.15454e-05 -0.992483 10.5765 -0.909862 
0.006375 0.00365625 2.05645 3.16315e+21 2.10349e-05 -3.29653 7.03791 1.02905 
0.010125 0.00646875 0 0 0 0 0 0 
0.010125 0.00665625 0 0 0 0 0 0 
0.006375 0.00196875 1.98724 3.21207e+21 2.13602e-05 3.71643 7.80514 5.9703 
0.007125 0.00196875 1.95622 3.57567e+21 2.37782e-05 9.80125 17.709 -1.77195 
0.006375 0.00215625 1.75152 2.93276e+21 1.95028e-05 -3.41503 9.34208 -4.5223 
0.007125 0.00215625 1.94413 3.45895e+21 2.3002e-05 4.09719 15.8197 4.30147 
0.010125 0.00871875 0 0 0 0 0 0 
0.010125 0.00890625 0 0 0 0 0 0 
0.015375 0.00271875 2.01848 2.45607e+21 1.63329e-05 2.86375 1.74453 2.47363 
0.016125 0.00271875 2.01434 2.64339e+21 1.75786e-05 -0.154348 0.043015 -1.71778 
0.015375 0.00290625 1.89829 2.60136e+21 1.72991e-05 -1.60182 -3.24533 1.28536 
0.016125 0.00290625 2.07245 2.41055e+21 1.60301e-05 4.05016 -1.87753 2.14736 
0.014625 0.00459375 1.93799 2.39227e+21 1.59086e-05 -1.22536 -3.13057 -1.99397 
0.013875 0.00478125 1.97141 2.38367e+21 1.58514e-05 0.790234 -1.14977 -2.78206 
0.013875 0.00515625 1.993 2.432e+21 1.61728e-05 2.99273 -1.20902 -1.08444 
0.015375 0.00459375 1.91863 2.48589e+21 1.65311e-05 0.322663 0.797069 -0.0553188 
0.015375 0.00478125 2.1278 2.547e+21 1.69375e-05 4.34837 -2.65646 -1.86264 
0.012375 0.00571875 1.8628 2.84983e+21 1.89514e-05 8.21637 4.31583 1.36961 
0.012375 0.00590625 1.65044 2.47193e+21 1.64383e-05 -1.56039 3.00647 -16.1942 
0.012375 0.00871875 1.9982 2.3755e+21 1.57971e-05 -0.374116 13.1664 2.59893 
0.012375 0.00890625 2.20558 2.36361e+21 1.5718e-05 3.4047 7.6705 -3.37704 
0.0031875 0.00135937 1.95195 1.48581e+22 9.88063e-05 29.8123 -1.51373 -0.419451 
0.0035625 0.00135937 2.20469 1.22554e+22 8.14982e-05 15.6703 -6.90853 4.60081 
0.0031875 0.00145312 1.92391 1.5577e+22 0.000103587 19.0805 -1.38555 2.52891 
0.0035625 0.00145312 2.00843 1.33339e+22 8.86707e-05 14.485 -3.48181 3.09618 
0.0046875 0.00135937 1.84096 1.11231e+22 7.39684e-05 24.2326 -4.18176 3.65438 
0.0050625 0.00135937 2.03434 9.39134e+21 6.24524e-05 28.725 0.517734 1.88616 
0.0046875 0.00145312 1.92841 1.02497e+22 6.81604e-05 18.8349 -7.34439 4.28404 
0.0050625 0.00145312 1.98046 8.94121e+21 5.94591e-05 21.78 0.63901 2.60628 
0.0076875 0.00623438 2.00636 3.21683e+21 2.13919e-05 4.8515 0.710006 -0.0523476 
0.0080625 0.00623438 1.95713 3.02077e+21 2.00881e-05 -1.7043 10.734 3.88338 
0.0076875 0.00632813 2.02018 2.91164e+21 1.93624e-05 1.6763 10.1355 3.23917 
0.0080625 0.00632813 2.0942 3.28364e+21 2.18362e-05 1.6566 7.14791 -0.312147 
0.0069375 0.00735937 1.89674 2.82351e+21 1.87763e-05 3.40292 3.94691 -2.64721 
0.0073125 0.00735937 2.01061 2.86657e+21 1.90627e-05 -5.3196 6.59777 -2.9746 
0.0069375 0.00745312 1.98924 2.88518e+21 1.91864e-05 3.38389 7.5855 4.49712 
0.0073125 0.00745312 1.98674 2.90948e+21 1.9348e-05 1.08904 7.11605 4.09108 
0.0084375 0.00735937 1.86985 2.89118e+21 1.92263e-05 0.711347 11.2073 4.74497 
0.0088125 0.00735937 2.08616 2.81736e+21 1.87354e-05 -1.10556 10.0077 1.30151 
0.0084375 0.00745312 2.02915 2.78192e+21 1.84998e-05 -3.77358 11.3633 1.06942 
0.0088125 0.00745312 1.89855 3.01881e+21 2.00751e-05 -2.04031 7.29908 -3.9905 
0.0076875 0.00923437 1.90518 2.99047e+21 1.98866e-05 0.75204 4.22163 2.65597 
0.0080625 0.00923437 1.91877 2.95125e+21 1.96258e-05 -0.514363 4.78632 1.07925 
0.0076875 0.00932812 1.92185 2.89733e+21 1.92672e-05 1.95853 3.55713 0.296191 
0.0080625 0.00932812 1.93466 2.9313e+21 1.94931e-05 3.50316 6.91621 -1.24052 
0.0076875 0.00942187 1.85537 3.03186e+21 2.01619e-05 1.53697 4.16969 -2.8348 
0.0080625 0.00942187 1.99014 2.92616e+21 1.94589e-05 -0.491677 8.62573 -1.86574 
0.0076875 0.00951562 2.18995 2.75936e+21 1.83497e-05 1.90707 1.54122 -1.49033 
0.0080625 0.00951562 1.99692 2.69751e+21 1.79385e-05 -3.51262 4.83306 -3.26071 
0.0091875 0.00942187 1.94386 2.82045e+21 1.8756e-05 5.42413 6.30348 1.22689 
0.0095625 0.00942187 2.0229 2.78992e+21 1.85529e-05 3.64213 7.61907 -1.54347 
0.0091875 0.00951562 1.94258 3.10666e+21 2.06593e-05 -0.0188435 5.78227 -4.84254 
0.0095625 0.00951562 2.04572 2.81275e+21 1.87048e-05 8.03416 3.88459 -1.98093 
0.0091875 0.00960937 1.9634 2.69946e+21 1.79514e-05 4.14598 7.11445 -2.84741 
0.0095625 0.00960937 2.0485 2.80311e+21 1.86407e-05 6.05078 1.8448 1.2569 
0.0091875 0.00970312 1.89373 2.82734e+21 1.88018e-05 -1.04794 7.14808 0.464219 
0.0095625 0.00970312 2.03134 2.66871e+21 1.77469e-05 3.60263 3.22553 3.68723 
0.0069375 0.00998437 1.97577 2.92907e+21 1.94783e-05 -5.75222 1.47758 -3.33784 
0.0073125 0.00998437 1.93949 2.81118e+21 1.86943e-05 -1.23522 4.46254 -1.66434 
0.0069375 0.0100781 1.97903 2.81647e+21 1.87295e-05 0.96005 3.63533 -2.29565 
0.0073125 0.0100781 2.03589 2.87936e+21 1.91477e-05 -1.14805 6.16514 2.40228 
0.0076875 0.00979687 1.83998 2.93429e+21 1.95131e-05 0.529362 3.74326 -1.71784 
0.0080625 0.00979687 1.97329 2.86498e+21 1.90521e-05 -0.814534 5.82202 0.371833 
0.0076875 0.00989062 1.91542 2.88817e+21 1.92064e-05 2.68216 4.84735 -1.30915 
0.0080625 0.00989062 1.96225 2.95683e+21 1.96629e-05 1.33092 0.148439 0.237341 
0.0069375 0.0103594 2.08368 2.95851e+21 1.96741e-05 3.25506 1.8927 0.368537 
0.0073125 0.0103594 2.05464 2.76186e+21 1.83663e-05 -0.972345 5.26573 3.17176 
0.0069375 0.0104531 2.04389 2.88867e+21 1.92096e-05 1.51413 5.70207 0.988614 
0.0073125 0.0104531 2.01284 2.79339e+21 1.8576e-05 5.60304 8.55586 2.59927 
0.0091875 0.00979687 2.06595 2.89733e+21 1.92672e-05 5.97009 6.17326 3.33844 
0.0095625 0.00979687 2.09568 2.71711e+21 1.80688e-05 1.79965 0.0826461 0.914946 
0.0091875 0.00989062 2.00546 2.77374e+21 1.84454e-05 3.12596 10.1171 0.363391 
0.0095625 0.00989062 1.87841 2.83782e+21 1.88715e-05 5.73815 5.24684 -0.751437 
0.0099375 0.00979687 2.00645 2.56924e+21 1.70855e-05 10.4084 0.904607 -0.483592 
0.0103125 0.00979687 1.85872 2.59235e+21 1.72391e-05 1.70124 4.46231 -0.521814 
0.0099375 0.00989062 1.98405 2.65016e+21 1.76236e-05 5.92964 -1.73123 -2.15065 
0.0103125 0.00989062 1.95478 2.61812e+21 1.74105e-05 7.39895 5.31835 -1.36738 
0.0069375 0.0120469 1.9391 2.8823e+21 1.91673e-05 0.882667 2.57351 3.26522 
0.0073125 0.0120469 1.88075 2.99503e+21 1.9917e-05 -0.395911 1.17406 1.87287 
0.0069375 0.0121406 2.08616 2.63258e+21 1.75066e-05 1.40875 -4.40283 6.09651 
0.0073125 0.0121406 2.0295 2.89733e+21 1.92672e-05 1.55177 2.72254 -4.75047 
0.0069375 0.0122344 1.92645 2.90103e+21 1.92918e-05 -1.67977 -3.22896 1.41773 
0.0073125 0.0122344 2.16524 2.86402e+21 1.90458e-05 4.21279 6.02386 2.65058 
0.0069375 0.0123281 2.11934 2.80552e+21 1.86567e-05 -2.57533 -0.603599 -0.532927 
0.0073125 0.0123281 2.01824 2.65864e+21 1.76799e-05 -2.97941 -1.9021 -0.936117 
0.0084375 0.0120469 1.98531 2.9537e+21 1.96421e-05 -0.846418 2.87857 1.04316 
0.0088125 0.0120469 2.02335 2.84096e+21 1.88924e-05 7.27712 -0.474726 1.49765 
0.0084375 0.0121406 2.01962 2.65122e+21 1.76306e-05 -0.131179 2.14734 2.06873 
0.0088125 0.0121406 1.95523 2.76682e+21 1.83993e-05 4.35357 1.19855 1.98288 
0.0084375 0.0122344 2.02417 2.74932e+21 1.82829e-05 0.325054 2.67276 -0.483423 
0.0088125 0.0122344 1.93511 2.73451e+21 1.81845e-05 3.77955 0.987374 -2.24663 
0.0084375 0.0123281 2.00642 2.82021e+21 1.87544e-05 7.46462 0.2907 1.40747 
0.0088125 0.0123281 1.9262 2.94874e+21 1.96091e-05 3.26103 0.792263 2.83451 
0.0069375 0.0124219 2.05304 2.89733e+21 1.92672e-05 -2.21234 3.60114 2.16828 
0.0073125 0.0124219 1.968 2.94106e+21 1.95581e-05 -0.43426 -0.893053 3.48714 
0.0069375 0.0125156 2.05598 2.69838e+21 1.79443e-05 -0.59189 2.97802 0.112111 
0.0073125 0.0125156 2.00443 2.69477e+21 1.79202e-05 3.37876 -2.37744 0.535066 
0.0080625 0.0124219 2.1013 2.78799e+21 1.85402e-05 2.5962 -4.26695 2.47948 
0.0076875 0.0125156 1.91939 3.06733e+21 2.03978e-05 3.51371 0.0463214 -0.254294 
0.0080625 0.0125156 1.95915 2.83584e+21 1.88583e-05 3.06995 -2.49908 -0.323096 
0.0084375 0.0126094 2.17643 2.87579e+21 1.9124e-05 1.36663 4.83516 -0.302923 
0.0088125 0.0126094 1.88881 2.75013e+21 1.82883e-05 2.58768 1.9382 -1.287 
0.0084375 0.0127031 1.92764 2.84642e+21 1.89287e-05 1.62057 -4.47019 2.01746 
0.0088125 0.0127031 1.91009 2.81581e+21 1.87251e-05 -0.81748 -0.0818895 -2.00695 
0.0099375 0.0120469 2.03397 2.6944e+21 1.79178e-05 1.25628 0.828536 2.53306 
0.0103125 0.0120469 1.92784 2.7658e+21 1.83926e-05 8.84808 2.10742 -2.45824 
0.0099375 0.0121406 2.08065 2.7519e+21 1.83001e-05 5.99187 0.602093 1.29506 
0.0091875 0.0122344 1.93566 2.86772e+21 1.90704e-05 4.58648 -0.518811 -0.257401 
0.0095625 0.0122344 2.08857 2.70861e+21 1.80123e-05 2.34491 3.36418 -5.17759 
0.0091875 0.0123281 1.96365 2.71739e+21 1.80707e-05 2.91082 2.51264 3.63096 
0.0095625 0.0123281 1.98371 2.81654e+21 1.873e-05 2.92516 -6.28236 1.09046 
0.0114375 0.0120469 2.04363 2.54409e+21 1.69182e-05 2.26521 3.60951 2.37096 
0.0118125 0.0120469 1.96462 2.61924e+21 1.7418e-05 5.61613 -4.83232 -4.0114 
0.0114375 0.0121406 1.90697 2.78919e+21 1.85481e-05 5.98131 1.53924 -0.986209 
0.0118125 0.0121406 1.99254 2.77055e+21 1.84241e-05 -0.678649 0.278016 1.01977 
0.0106875 0.0124219 2.02476 2.56568e+21 1.70618e-05 1.67219 1.96448 -0.983075 
0.0106875 0.0125156 1.9436 2.63328e+21 1.75113e-05 0.324614 -0.653534 -2.74501 
0.0110625 0.0125156 1.95233 2.66945e+21 1.77518e-05 1.88871 -1.61355 -0.608276 
0.0076875 0.00567187 1.97196 3.0809e+21 2.0488e-05 -1.24563 3.17703 -0.381091 
0.0080625 0.00567187 1.88232 3.62365e+21 2.40973e-05 1.63655 4.19183 -3.66743 
0.0076875 0.00576562 2.11424 3.06222e+21 2.03637e-05 -0.621992 7.64805 -0.904142 
0.0080625 0.00576562 2.08689 3.30562e+21 2.19824e-05 -1.7116 9.22846 -1.01803 
0.0069375 0.00792188 1.91185 2.80018e+21 1.86212e-05 -0.72264 -0.271749 2.49956 
0.0073125 0.00792188 2.09945 3.03448e+21 2.01793e-05 4.51321 4.60844 0.218583 
0.0069375 0.00801563 1.94971 3.08371e+21 2.05066e-05 2.30544 8.04379 2.37729 
0.0073125 0.00801563 1.99302 3.04417e+21 2.02437e-05 -3.0308 5.13174 4.77878 
0.0084375 0.00792188 1.98236 2.72017e+21 1.80892e-05 -3.2686 7.90847 2.36711 
0.0088125 0.00792188 2.07146 2.9259e+21 1.94572e-05 0.419611 9.74413 1.91309 
0.0084375 0.00801563 2.02489 2.95945e+21 1.96804e-05 1.11588 6.46514 2.70755 
0.0088125 0.00801563 2.06834 2.86344e+21 1.90419e-05 2.61282 7.28123 1.77634 
0.0069375 0.00867188 2.09078 2.85034e+21 1.89548e-05 -1.09603 7.48417 -0.071395 
0.0073125 0.00867188 1.98739 2.82946e+21 1.88159e-05 3.84839 1.45783 -0.369687 
0.0069375 0.00876563 1.89774 2.75272e+21 1.83056e-05 0.229755 6.45047 -1.48684 
0.0073125 0.00876563 2.03231 2.84052e+21 1.88894e-05 1.20715 5.26949 -2.32815 
0.0069375 0.0111094 1.96065 2.95845e+21 1.96737e-05 -0.541057 -1.23035 1.03428 
0.0073125 0.0111094 2.00442 2.8036e+21 1.8644e-05 3.74845 1.70629 0.828283 
0.0069375 0.0112031 1.98596 2.87308e+21 1.9106e-05 -2.07322 3.64191 -0.291974 
0.0073125 0.0112031 2.08133 2.78014e+21 1.84879e-05 0.955194 -0.472714 4.01097 
0.0084375 0.0109219 1.925 2.78956e+21 1.85506e-05 6.76875 5.22442 4.08105 
0.0088125 0.0109219 2.05892 3.02997e+21 2.01493e-05 3.73754 -0.444173 3.03657 
0.0084375 0.0110156 1.89793 2.80691e+21 1.8666e-05 2.91072 -0.720816 -1.44953 
0.0088125 0.0110156 2.13815 2.76993e+21 1.842e-05 3.47091 3.72511 -3.88353 
0.0084375 0.0111094 2.00796 2.6406e+21 1.756e-05 2.08657 3.03267 -0.0362987 
0.0088125 0.0111094 2.02585 2.58763e+21 1.72077e-05 3.36578 1.697 -1.3499 
0.0084375 0.0112031 2.00287 2.9337e+21 1.95091e-05 2.26463 1.26526 0.486163 
0.0088125 0.0112031 2.03116 2.89329e+21 1.92404e-05 8.80487 5.5788 2.635 
0.0106875 0.0105469 1.95167 2.75568e+21 1.83253e-05 7.73592 3.22179 3.13965 
0.0110625 0.0105469 1.97727 2.58399e+21 1.71835e-05 5.36608 3.44979 1.20675 
0.0106875 0.0106406 2.01481 2.7314e+21 1.81638e-05 4.54134 -1.2434 -4.31234 
0.0110625 0.0106406 2.02922 2.72715e+21 1.81355e-05 4.67112 2.2454 -1.81101 
0.0099375 0.0109219 1.90423 2.76883e+21 1.84127e-05 8.52478 2.92875 2.33192 
0.0103125 0.0109219 2.01583 2.68179e+21 1.78339e-05 8.0358 2.21921 2.93971 
0.0099375 0.0110156 1.90944 2.72883e+21 1.81467e-05 -2.35064 3.33597 1.21147 
0.0103125 0.0110156 2.09188 2.72061e+21 1.80921e-05 2.08832 -0.449907 -3.49853 
0.0114375 0.0109219 1.97463 2.60304e+21 1.73102e-05 10.5357 2.55752 5.31266 
0.0118125 0.0109219 2.01389 2.56573e+21 1.70621e-05 3.07108 -3.27765 1.63872 
0.0114375 0.0110156 2.03944 2.8028e+21 1.86387e-05 8.48047 -1.12759 -4.03422 
0.0118125 0.0110156 1.94908 2.76993e+21 1.842e-05 2.7026 -3.1693 4.97628 
0.0069375 0.0112969 1.93404 2.72501e+21 1.81213e-05 0.414491 3.48349 4.37215 
0.0073125 0.0112969 2.0355 2.94141e+21 1.95604e-05 2.07413 0.781674 -2.3585 
0.0069375 0.0113906 1.98687 2.82579e+21 1.87915e-05 -7.55903 4.48882 1.55224 
0.0069375 0.0114844 1.87909 2.83031e+21 1.88216e-05 3.51542 -2.63839 2.17418 
0.0073125 0.0114844 1.97204 2.79089e+21 1.85595e-05 -2.63162 4.44527 2.36375 
0.0069375 0.0115781 2.02788 2.67446e+21 1.77851e-05 -0.413909 -1.01176 3.90024 
0.0073125 0.0115781 1.95248 2.93252e+21 1.95012e-05 1.73748 2.78977 -1.73629 
0.0076875 0.0112969 1.94218 2.9935e+21 1.99068e-05 1.19752 0.933727 0.947424 
0.0080625 0.0112969 1.96417 2.78111e+21 1.84944e-05 6.90773 2.89775 1.27157 
0.0076875 0.0113906 2.00431 2.74233e+21 1.82365e-05 -3.12694 3.29622 -0.584541 
0.0080625 0.0113906 2.01073 2.94899e+21 1.96108e-05 4.75788 2.31699 0.578916 
0.0084375 0.0112969 2.0005 2.68093e+21 1.78282e-05 5.19762 2.15836 0.329578 
0.0088125 0.0112969 2.00559 2.78111e+21 1.84944e-05 6.37604 6.36843 0.130963 
0.0084375 0.0113906 1.97877 2.9331e+21 1.95051e-05 2.02634 1.70748 -1.45 
0.0088125 0.0113906 1.87646 2.72245e+21 1.81043e-05 2.7537 0.729801 -0.0390168 
0.0076875 0.0114844 1.94789 2.76724e+21 1.84022e-05 1.64432 0.124402 -4.14199 
0.0080625 0.0114844 1.96183 2.79484e+21 1.85857e-05 6.06465 -0.0118828 2.21777 
0.0076875 0.0115781 2.0238 2.97553e+21 1.97873e-05 -2.84718 -2.52892 -1.77696 
0.0080625 0.0115781 1.93039 2.74875e+21 1.82792e-05 4.15099 -3.81862 -1.85057 
0.0076875 0.0116719 2.06009 2.74218e+21 1.82355e-05 1.41219 2.37207 -0.0162393 
0.0080625 0.0116719 1.96396 2.69176e+21 1.79002e-05 1.80961 3.13592 3.40627 
0.0076875 0.0117656 1.91787 2.99352e+21 1.99069e-05 4.67782 0.294184 -5.16753 
0.0080625 0.0117656 2.05518 3.04739e+21 2.02651e-05 1.25277 -0.340632 0.608861 
0.0080625 0.0118594 1.97064 2.89351e+21 1.92418e-05 0.163859 1.98011 4.88686 
0.0076875 0.0119531 2.04073 2.8746e+21 1.91161e-05 3.62852 -0.848575 0.0135385 
0.0080625 0.0119531 1.95927 2.86703e+21 1.90657e-05 3.61998 2.22526 -0.94266 
0.0084375 0.0118594 1.89578 2.87442e+21 1.91149e-05 4.78578 4.9378 0.477595 
0.0088125 0.0118594 1.86623 2.84007e+21 1.88865e-05 4.7679 1.8038 6.6649 
0.0084375 0.0119531 1.97328 2.7572e+21 1.83353e-05 3.63593 6.89905 -0.135409 
0.0088125 0.0119531 2.0262 2.95414e+21 1.9645e-05 1.48528 -0.630194 -0.479552 
0.0099375 0.0112969 1.96637 2.67692e+21 1.78015e-05 2.33113 3.82821 0.560694 
0.0103125 0.0112969 1.88423 2.62883e+21 1.74817e-05 6.03967 -6.23334 3.86191 
0.0103125 0.0113906 2.06826 2.63899e+21 1.75493e-05 5.26664 0.901554 1.98339 
0.0114375 0.0112969 2.00487 2.54468e+21 1.69221e-05 2.78125 0.432089 2.83297 
0.0118125 0.0112969 1.88116 2.63685e+21 1.7535e-05 3.02975 -0.674612 -5.54912 
0.0114375 0.0113906 1.9151 2.53566e+21 1.68621e-05 4.06914 -0.213356 2.74199 
0.0118125 0.0113906 2.06785 2.58335e+21 1.71793e-05 4.79508 3.23156 -5.02883 
0.0114375 0.0114844 1.99792 2.61745e+21 1.7406e-05 6.01702 -0.684106 -0.52742 
0.0118125 0.0114844 2.06597 2.78695e+21 1.85332e-05 8.30038 -3.08503 1.67698 
0.0114375 0.0115781 2.03842 2.66664e+21 1.77331e-05 4.67899 1.38143 -1.83496 
0.0118125 0.0115781 1.94781 2.54934e+21 1.69531e-05 3.73138 0.643839 -0.129754 
0.0091875 0.0116719 1.97151 2.77321e+21 1.84419e-05 4.88069 -0.249766 0.89208 
0.0095625 0.0116719 2.07967 2.72667e+21 1.81323e-05 3.08438 0.839813 2.46497 
0.0091875 0.0117656 1.98299 2.9435e+21 1.95743e-05 3.8439 -0.978138 -0.490411 
0.0095625 0.0117656 2.07157 2.65877e+21 1.76808e-05 6.32709 0.0190823 0.0029375 
0.0091875 0.0118594 1.94696 2.68738e+21 1.78711e-05 1.70268 -0.800034 -0.634344 
0.0095625 0.0118594 2.01997 2.71028e+21 1.80234e-05 2.63866 -2.41549 1.01921 
0.0091875 0.0119531 1.98814 2.79507e+21 1.85872e-05 2.87963 -1.61336 0.847754 
0.0095625 0.0119531 2.08228 2.71175e+21 1.80331e-05 6.74065 0.566324 -1.44453 
0.0099375 0.0118594 2.13236 2.92405e+21 1.94449e-05 2.80778 0.44292 0.599303 
0.0103125 0.0118594 1.97965 2.88206e+21 1.91657e-05 7.99353 -2.32427 4.31471 
0.0099375 0.0119531 2.02549 2.66251e+21 1.77057e-05 5.24651 -2.00662 -1.27771 
0.0103125 0.0119531 1.8697 2.67766e+21 1.78064e-05 9.98943 0.336855 -2.31871 
0.0106875 0.0118594 2.00403 2.65302e+21 1.76426e-05 -0.680917 1.09491 -1.52177 
0.0110625 0.0118594 1.90625 2.57667e+21 1.71349e-05 4.42206 -0.886781 -0.835186 
0.0106875 0.0119531 1.98454 2.78749e+21 1.85368e-05 6.38532 -1.73149 3.91589 
0.0110625 0.0119531 1.95345 2.83673e+21 1.88643e-05 9.40922 -1.00857 0.781138 
0.0159375 0.00848438 1.8646 2.193e+21 1.45835e-05 4.09846 -0.446848 1.77715 
0.0163125 0.00848438 2.02056 2.60386e+21 1.73157e-05 -0.210039 -4.31891 1.30483 
0.0159375 0.00857813 1.93172 2.44874e+21 1.62841e-05 9.40563 1.98741 3.11579 
0.0163125 0.00857813 1.99325 2.38541e+21 1.5863e-05 2.45945 -2.97622 -2.17983 
0.0121875 0.0105469 1.95804 2.37366e+21 1.57849e-05 -1.71462 0.644865 -2.8051 
0.0125625 0.0105469 1.94296 2.60974e+21 1.73548e-05 5.37312 -1.70923 -0.485134 
0.0121875 0.0106406 2.00397 2.70162e+21 1.79658e-05 5.66578 0.211053 -2.38473 
0.0125625 0.0106406 2.09311 2.60377e+21 1.7315e-05 3.49284 1.74037 0.853145 
0.0136875 0.0107344 2.12853 2.42077e+21 1.60981e-05 8.38163 -1.03606 -0.936171 
0.0140625 0.0107344 1.86715 2.68224e+21 1.78369e-05 4.81427 0.296077 0.792727 
0.0136875 0.0108281 1.96246 2.52105e+21 1.6765e-05 6.94893 -3.09397 -1.00298 
0.0140625 0.0108281 2.04641 2.49179e+21 1.65704e-05 5.04522 -2.44689 2.1079 
0.0151875 0.0109219 1.92577 2.67764e+21 1.78063e-05 5.51468 1.22133 -1.22333 
0.0155625 0.0109219 1.95985 2.60304e+21 1.73102e-05 2.48966 3.21775 0.571811 
0.0151875 0.0110156 2.12057 2.53157e+21 1.68349e-05 1.80631 4.8416 0.110507 
0.0155625 0.0110156 2.06753 2.35485e+21 1.56597e-05 7.58466 -3.70219 2.54746 
0.0159375 0.0111094 2.0343 2.36758e+21 1.57444e-05 4.29365 0.45881 0.752297 
0.0163125 0.0111094 1.95972 2.63653e+21 1.75329e-05 1.64132 1.51296 4.47264 
0.0159375 0.0112031 1.97853 2.5781e+21 1.71443e-05 4.8731 -4.98594 -1.05964 
0.0163125 0.0112031 2.00009 2.45283e+21 1.63113e-05 0.347791 -3.81512 -0.764013 
0.0174375 0.0109219 1.96484 2.59475e+21 1.72551e-05 3.68836 4.45382 -0.219099 
0.0178125 0.0109219 1.88263 2.66106e+21 1.76961e-05 -1.16538 -3.505 3.00505 
0.0174375 0.0110156 2.12666 2.55622e+21 1.69989e-05 3.93342 -0.894806 -0.229753 
0.0178125 0.0110156 2.06375 2.48636e+21 1.65343e-05 -1.03091 -0.721029 -1.28542 
0.0136875 0.0114844 1.92518 2.3967e+21 1.59381e-05 2.48425 -3.31666 0.331491 
0.0140625 0.0114844 2.00029 2.62533e+21 1.74585e-05 5.183 -2.55979 -6.47623 
0.0136875 0.0115781 1.956 2.43594e+21 1.6199e-05 7.23748 -1.66167 2.43665 
0.0140625 0.0115781 1.98067 2.60017e+21 1.72911e-05 2.94559 -0.653214 -2.42511 
0.0121875 0.0118594 1.92527 2.58813e+21 1.7211e-05 3.4241 -0.214706 1.45891 
0.0125625 0.0118594 1.90511 2.65302e+21 1.76426e-05 5.23419 2.06388 -3.24031 
0.0121875 0.0119531 1.9564 2.55647e+21 1.70005e-05 4.05439 1.73075 -0.815187 
0.0125625 0.0119531 1.9046 2.61328e+21 1.73783e-05 5.95248 -5.51012 2.30922 
0.0129375 0.0118594 1.95116 2.55759e+21 1.7008e-05 5.57968 -0.32801 -3.5711 
0.0133125 0.0118594 1.8476 2.67211e+21 1.77695e-05 2.45467 2.56576 -0.30117 
0.0129375 0.0119531 1.87236 2.68902e+21 1.7882e-05 0.477787 -3.44933 -6.5428 
0.0133125 0.0119531 2.12963 2.5148e+21 1.67234e-05 6.68624 3.49704 2.41974 
0.007875 0.00121875 1.94152 4.61529e+21 3.06917e-05 29.183 14.4119 2.55302 
0.008625 0.00121875 2.02414 4.63387e+21 3.08152e-05 14.2414 16.5667 0.802962 
0.007875 0.00140625 1.99342 4.15284e+21 2.76164e-05 25.4824 20.9482 2.15532 
0.008625 0.00140625 1.95962 4.07235e+21 2.70812e-05 18.6115 13.1321 -3.47535 
0.010125 0.00421875 0 0 0 0 0 0 
0.009375 0.00440625 2.08078 3.30762e+21 2.19957e-05 1.93595 8.17162 -3.63608 
0.010125 0.00440625 0 0 0 0 0 0 
0.010125 0.00496875 0 0 0 0 0 0 
0.009375 0.00515625 1.96773 3.23651e+21 2.15228e-05 -2.02601 9.21189 0.467531 
0.010125 0.00515625 0 0 0 0 0 0 
0.0084375 0.00660938 1.92225 2.90418e+21 1.93128e-05 -1.34027 4.64017 5.81997 
0.0088125 0.00660938 1.88035 3.19185e+21 2.12258e-05 1.20984 3.7042 3.9321 
0.0084375 0.00670313 2.05645 2.97837e+21 1.98062e-05 5.16321 7.5226 -1.38922 
0.0088125 0.00670313 1.93202 2.99863e+21 1.99409e-05 -3.40603 1.03398 -0.315446 
0.0076875 0.00904687 2.01097 2.97239e+21 1.97664e-05 -1.49027 10.113 -1.87823 
0.0080625 0.00904687 2.0886 2.92735e+21 1.94669e-05 2.62084 8.32633 -1.94783 
0.0076875 0.00914062 2.01794 3.08553e+21 2.05188e-05 -1.89908 4.25724 1.39427 