ITEM: TIMESTEP
500000
ITEM: NUMBER OF CELLS
34709
ITEM: BOX BOUNDS oo ao pp
0 0.12
0 0.03
-0.1 0.1
ITEM: CELLS xc yc f_out[1] f_out[2] f_out[3] f_out[4] f_out[5] f_out[6] 
0.003 0.00375 0 0 0 0 0 0 
0.003 0.00525 0 0 0 0 0 0 
0.003 0.00675 0 0 0 0 0 0 
0.003 0.00825 0 0 0 0 0 0 
0.003 0.00975 0 0 0 0 0 0 
0.003 0.01125 0 0 0 0 0 0 
0.003 0.01275 0 0 0 0 0 0 
0.003 0.01425 0 0 0 0 0 0 
0.003 0.01575 0 0 0 0 0 0 
0.003 0.01725 0 0 0 0 0 0 
0.003 0.01875 0 0 0 0 0 0 
0.003 0.02025 0 0 0 0 0 0 
0.003 0.02175 0 0 0 0 0 0 
0.003 0.02325 0 0 0 0 0 0 
0.027 0.02325 0 0 0 0 0 0 
0.003 0.02475 0 0 0 0 0 0 
0.027 0.02475 0 0 0 0 0 0 
0.003 0.02625 0 0 0 0 0 0 
0.027 0.02625 0 0 0 0 0 0 
0.003 0.02775 0 0 0 0 0 0 
0.027 0.02775 0 0 0 0 0 0 
0.003 0.02925 0 0 0 0 0 0 
0.027 0.02925 0 0 0 0 0 0 
0.009 0.01425 0 0 0 0 0 0 
0.009 0.01575 0 0 0 0 0 0 
0.009 0.01725 0 0 0 0 0 0 
0.009 0.01875 0 0 0 0 0 0 
0.009 0.02025 0 0 0 0 0 0 
0.009 0.02175 0 0 0 0 0 0 
0.009 0.02325 0 0 0 0 0 0 
0.009 0.02475 0 0 0 0 0 0 
0.009 0.02625 0 0 0 0 0 0 
0.009 0.02775 0 0 0 0 0 0 
0.009 0.02925 0 0 0 0 0 0 
0.015 0.01425 0 0 0 0 0 0 
0.015 0.01575 0 0 0 0 0 0 
0.015 0.01725 0 0 0 0 0 0 
0.015 0.01875 0 0 0 0 0 0 
0.015 0.02025 0 0 0 0 0 0 
0.015 0.02175 0 0 0 0 0 0 
0.015 0.02325 0 0 0 0 0 0 
0.015 0.02475 0 0 0 0 0 0 
0.015 0.02625 0 0 0 0 0 0 
0.015 0.02775 0 0 0 0 0 0 
0.015 0.02925 0 0 0 0 0 0 
0.021 0.02325 0 0 0 0 0 0 
0.021 0.02475 0 0 0 0 0 0 
0.021 0.02625 0 0 0 0 0 0 
0.021 0.02775 0 0 0 0 0 0 
0.021 0.02925 0 0 0 0 0 0 
0.0015 0.000375 0 0 0 0 0 0 
0.0015 0.001125 0 0 0 0 0 0 
0.0015 0.001875 0 0 0 0 0 0 
0.0015 0.002625 0 0 0 0 0 0 
0.0045 0.002625 0 0 0 0 0 0 
0.0255 0.022125 0 0 0 0 0 0 
0.0285 0.022125 0 0 0 0 0 0 
0.0105 0.000375 2.14904 4.35624e+21 2.8969e-05 3.53022 2.87103 1.14626 
0.0075 0.013125 0 0 0 0 0 0 
0.0105 0.013125 0 0 0 0 0 0 
0.0135 0.013125 0 0 0 0 0 0 
0.0165 0.013125 0 0 0 0 0 0 
0.0195 0.022125 0 0 0 0 0 0 
0.0225 0.022125 0 0 0 0 0 0 
0.00375 0.0001875 1.96106 1.06661e+22 7.09293e-05 29.383 -0.288791 0.991875 
0.00525 0.0001875 1.67462 8.42036e+21 5.59954e-05 40.0672 2.6745 6.1693 
0.00525 0.0016875 1.96614 7.63059e+21 5.07434e-05 16.4547 2.09252 0.876767 
0.00375 0.0020625 0 0 0 0 0 0 
0.00525 0.0020625 0 0 0 0 0 0 
0.00675 0.0001875 1.88099 5.65884e+21 3.76313e-05 46.9816 -4.42723 -3.79372 
0.00825 0.0001875 1.91486 4.25545e+21 2.82987e-05 30.2535 8.04784 1.70167 
0.00825 0.0005625 2.08434 3.94861e+21 2.62583e-05 24.6233 5.47719 -2.02077 
0.00975 0.0024375 1.98732 3.57107e+21 2.37476e-05 -0.531836 11.5725 -0.935518 
0.01125 0.0024375 0 0 0 0 0 0 
0.01125 0.0028125 0 0 0 0 0 0 
0.01125 0.0054375 0 0 0 0 0 0 
0.01125 0.0058125 0 0 0 0 0 0 
0.01125 0.0061875 0 0 0 0 0 0 
0.01125 0.0065625 0 0 0 0 0 0 
0.01125 0.0069375 0 0 0 0 0 0 
0.01125 0.0073125 0 0 0 0 0 0 
0.01125 0.0084375 0 0 0 0 0 0 
0.01125 0.0088125 0 0 0 0 0 0 
0.01125 0.0091875 0 0 0 0 0 0 
0.01125 0.0031875 0 0 0 0 0 0 
0.01125 0.0035625 0 0 0 0 0 0 
0.01125 0.0039375 0 0 0 0 0 0 
0.01125 0.0043125 0 0 0 0 0 0 
0.01125 0.0046875 0 0 0 0 0 0 
0.01125 0.0050625 0 0 0 0 0 0 
0.01125 0.0076875 0 0 0 0 0 0 
0.01125 0.0080625 0 0 0 0 0 0 
0.003375 0.00046875 1.98023 1.05473e+22 7.01395e-05 24.2279 -7.0892 -7.56653 
0.004125 0.00046875 1.8959 1.04304e+22 6.9362e-05 36.9005 -2.62663 -2.58652 
0.003375 0.00065625 1.88255 1.05972e+22 7.04715e-05 25.1403 0.0328325 0.110204 
0.004125 0.00065625 1.89311 1.00717e+22 6.69765e-05 29.393 -1.64774 -4.18247 
0.004875 0.00046875 1.84004 8.93343e+21 5.94073e-05 42.6949 -3.69332 -0.536416 
0.005625 0.00046875 1.83971 8.08837e+21 5.37877e-05 47.2514 6.97508 -1.77188 
0.004875 0.00065625 1.92464 8.53677e+21 5.67695e-05 38.8024 -1.91551 3.61784 
0.005625 0.00065625 1.6856 7.20883e+21 4.79387e-05 46.7313 1.61358 -1.3042 
0.003375 0.00084375 1.84929 1.11191e+22 7.39422e-05 22.1232 -0.0547169 -2.32618 
0.004125 0.00084375 1.96028 9.9931e+21 6.64541e-05 30.8622 -4.50905 -1.58679 
0.003375 0.00103125 2.01713 1.11913e+22 7.44224e-05 21.5901 0.815474 1.52138 
0.004125 0.00103125 1.97046 1.01406e+22 6.74353e-05 29.1541 -5.61112 -0.848213 
0.004875 0.00084375 1.86036 9.51021e+21 6.32429e-05 35.312 -0.257834 -2.19666 
0.005625 0.00084375 1.84948 7.51159e+21 4.99521e-05 42.9532 -1.09096 -1.73635 
0.004875 0.00103125 1.88582 8.58223e+21 5.70719e-05 31.3125 1.89939 -3.13331 
0.005625 0.00103125 1.99409 7.17747e+21 4.77302e-05 37.5506 2.05271 -1.61709 
0.003375 0.00121875 1.9819 1.17667e+22 7.82487e-05 21.2307 -3.90857 0.969364 
0.003375 0.00140625 1.88572 1.13415e+22 7.54211e-05 18.9073 3.03416 5.48516 
0.004875 0.00121875 1.8715 8.07909e+21 5.37259e-05 26.8063 -0.170601 -3.13513 
0.005625 0.00121875 2.00549 7.55905e+21 5.02677e-05 30.3884 0.392799 3.71183 
0.004875 0.00140625 1.99765 8.28958e+21 5.51257e-05 20.8825 1.31099 0.977921 
0.005625 0.00140625 1.97757 6.94554e+21 4.61878e-05 21.1028 3.41205 0.713402 
0.028875 0.00553125 1.98564 2.26098e+21 1.50355e-05 3.0348 0.994969 -0.978671 
0.024375 0.0216562 1.94797 2.47489e+21 1.6458e-05 1.109 -1.74796 1.48948 
0.025125 0.0216562 2.00931 2.15659e+21 1.43413e-05 -0.0970965 -3.10417 3.05826 
0.025875 0.0216562 1.95248 2.34614e+21 1.56018e-05 -1.00834 1.36647 -0.228361 
0.026625 0.0216562 2.10681 2.37118e+21 1.57683e-05 -2.48268 0.340564 -2.56699 
0.027375 0.0216562 2.02622 2.41409e+21 1.60537e-05 -6.84749 -1.11481 -1.57951 
0.028125 0.0216562 2.04672 2.38906e+21 1.58872e-05 -2.84341 -2.26399 0.540611 
0.028875 0.0216562 1.89426 2.27461e+21 1.51262e-05 3.24796 -0.150716 2.76278 
0.029625 0.0216562 2.04512 2.28892e+21 1.52213e-05 -1.68764 2.3019 -1.56877 
0.007875 0.00159375 2.03023 3.93412e+21 2.61619e-05 16.6898 13.1837 1.16911 
0.008625 0.00159375 1.89534 3.91991e+21 2.60674e-05 11.0198 12.0107 2.74653 
0.007875 0.00178125 1.99656 3.11971e+21 2.07461e-05 12.4851 16.6872 -0.790273 
0.008625 0.00178125 2.04603 3.62166e+21 2.4084e-05 7.13057 17.7033 2.18959 
0.007875 0.00196875 1.95165 3.47219e+21 2.30901e-05 13.2839 12.4568 2.19136 
0.008625 0.00196875 2.07898 3.34572e+21 2.22491e-05 5.46914 17.4381 -2.42587 
0.007875 0.00215625 1.9718 3.27524e+21 2.17803e-05 4.72573 18.3871 1.59944 
0.008625 0.00215625 1.9136 3.38546e+21 2.25133e-05 7.39144 13.6326 1.25385 
0.007875 0.00309375 1.97052 3.14243e+21 2.08972e-05 1.94706 15.0196 -1.787 
0.006375 0.00346875 1.99275 3.00377e+21 1.99751e-05 0.26878 2.56877 -2.58713 
0.007125 0.00346875 1.98726 2.8908e+21 1.92238e-05 -0.131745 4.09047 1.36709 
0.006375 0.00365625 2.01194 3.04707e+21 2.0263e-05 -1.27244 3.68073 -7.62921 
0.007125 0.00365625 1.95884 3.03972e+21 2.02141e-05 -0.392554 6.9918 -1.42326 
0.007875 0.00346875 2.02463 3.20076e+21 2.12851e-05 -0.100198 10.1089 0.613268 
0.008625 0.00346875 1.96533 3.22034e+21 2.14153e-05 -1.37895 11.6625 2.98665 
0.006375 0.00384375 1.91854 2.99229e+21 1.98987e-05 0.909561 3.07893 -1.90417 
0.007125 0.00384375 2.03831 3.07988e+21 2.04812e-05 0.510808 5.96524 -3.07946 
0.006375 0.00403125 2.09661 2.98471e+21 1.98483e-05 -1.66141 4.67091 1.4031 
0.006375 0.00478125 2.05822 2.91597e+21 1.93912e-05 0.244311 5.1232 0.768484 
0.007875 0.00478125 2.01656 2.87129e+21 1.90941e-05 -3.65054 7.96219 3.12616 
0.006375 0.00571875 2.01794 2.66429e+21 1.77176e-05 -4.43945 5.62101 -5.79786 
0.006375 0.00590625 1.96534 2.95338e+21 1.964e-05 -1.31318 6.01247 1.24817 
0.006375 0.00609375 2.01916 2.81375e+21 1.87114e-05 -2.18537 3.38175 2.73583 
0.006375 0.00628125 1.95848 2.91219e+21 1.93661e-05 0.65447 4.96212 -1.10246 
0.006375 0.00646875 2.05233 2.85402e+21 1.89793e-05 1.43623 2.12009 -2.26635 
0.006375 0.00684375 1.93573 2.87128e+21 1.9094e-05 -0.64032 2.69896 1.45735 
0.006375 0.00703125 2.0141 2.71624e+21 1.8063e-05 -3.47705 2.9171 2.62358 
0.006375 0.00721875 2.07533 2.82795e+21 1.88059e-05 -0.394245 9.23093 -2.12476 
0.006375 0.00740625 1.96504 2.68186e+21 1.78344e-05 2.29811 -1.98342 -1.82803 
0.006375 0.00778125 2.0454 2.6917e+21 1.78998e-05 -4.2065 3.03038 1.26934 
0.006375 0.00796875 2.05039 2.76152e+21 1.83641e-05 -0.0662534 3.89177 -0.569914 
0.010125 0.00871875 0 0 0 0 0 0 
0.010125 0.00890625 0 0 0 0 0 0 
0.006375 0.00928125 1.91798 2.72082e+21 1.80934e-05 -0.790732 0.101629 0.247963 
0.010125 0.00946875 1.9923 2.55124e+21 1.69658e-05 -1.02631 -3.0187 3.52931 
0.010875 0.00946875 2.02384 2.647e+21 1.76025e-05 -1.32529 0.0962529 2.17534 
0.011625 0.00946875 2.08494 2.40077e+21 1.59651e-05 3.99342 0.237037 3.37599 
0.006375 0.00984375 1.92707 2.60199e+21 1.73032e-05 2.5189 3.04677 -0.533287 
0.006375 0.0126563 2.04093 2.72391e+21 1.8114e-05 1.65681 -0.350467 1.53987 
0.016875 0.00421875 2.07019 2.22933e+21 1.48251e-05 1.44636 0.716143 -1.60766 
0.017625 0.00421875 2.02468 2.21324e+21 1.4718e-05 2.24719 -1.04422 0.258086 
0.016875 0.00440625 2.08582 2.44526e+21 1.6261e-05 -1.44579 -3.08027 -1.0509 
0.017625 0.00440625 1.95811 2.40673e+21 1.60048e-05 -1.2662 -0.425906 0.826809 
0.014625 0.00590625 2.03091 2.36653e+21 1.57375e-05 -0.609613 -4.19602 -3.53062 
0.016125 0.00534375 2.05493 2.30431e+21 1.53236e-05 0.832801 -2.28435 -3.22034 
0.015375 0.00553125 1.98664 2.33464e+21 1.55254e-05 -0.233974 -1.7456 2.66278 
0.012375 0.00946875 1.99036 2.34612e+21 1.56017e-05 -1.38489 -1.31117 3.90116 
0.021375 0.00496875 1.98939 2.33244e+21 1.55107e-05 0.348401 -0.167271 -2.65021 
0.022125 0.00496875 1.97724 2.30283e+21 1.53138e-05 1.64072 -0.678244 1.21955 
0.021375 0.00515625 1.90815 2.33323e+21 1.5516e-05 5.88249 -4.45372 1.9286 
0.020625 0.00534375 1.90068 2.1857e+21 1.45349e-05 2.71708 1.07618 -3.05156 
0.021375 0.00534375 2.008 2.44409e+21 1.62532e-05 -2.28876 0.00745957 0.0373527 
0.018375 0.0147187 0 0 0 0 0 0 
0.018375 0.0149062 0 0 0 0 0 0 
0.018375 0.0188437 0 0 0 0 0 0 
0.018375 0.0190312 0 0 0 0 0 0 
0.018375 0.0195938 0 0 0 0 0 0 
0.018375 0.0197812 0 0 0 0 0 0 
0.018375 0.0203437 0 0 0 0 0 0 
0.018375 0.0205312 0 0 0 0 0 0 
0.019875 0.0216562 1.97878 2.28176e+21 1.51737e-05 3.95704 4.38117 -1.08863 
0.020625 0.0216562 1.97127 2.44628e+21 1.62678e-05 -0.782443 -1.6465 -3.6691 
0.021375 0.0216562 1.90458 2.34256e+21 1.55781e-05 1.74137 -3.3664 2.6922 
0.022125 0.0216562 1.94031 2.22097e+21 1.47694e-05 0.882889 0.518507 3.31685 
0.022875 0.0216562 1.89138 2.5035e+21 1.66483e-05 -2.41385 -2.57429 0.611183 
0.023625 0.0216562 1.95797 2.32468e+21 1.54591e-05 1.55841 -1.16277 -3.94439 
0.01275 0.0016875 2.02484 2.34213e+21 1.55752e-05 3.16993 0.368824 0.748799 
0.01275 0.0020625 1.96952 2.29955e+21 1.5292e-05 -1.16432 0.472866 -3.04593 
0.01275 0.0009375 1.87956 2.33144e+21 1.55041e-05 -1.99567 4.97991 0.186041 
0.01425 0.0009375 2.00728 2.46273e+21 1.63771e-05 0.190047 0.83675 1.14228 
0.01275 0.0013125 1.91593 2.42118e+21 1.61008e-05 -5.48679 0.882588 0.819327 
0.01875 0.0009375 2.09894 2.38124e+21 1.58353e-05 2.33123 -2.35032 -3.84888 
0.02025 0.0009375 2.00678 2.43858e+21 1.62166e-05 0.103457 2.05507 -5.02557 
0.02025 0.0013125 2.08608 2.16653e+21 1.44074e-05 2.75153 -3.03135 -1.52628 
0.02175 0.0009375 2.04686 2.19714e+21 1.4611e-05 -0.985408 -1.59838 -0.85758 
0.02325 0.0009375 2.01512 2.30881e+21 1.53536e-05 0.267002 -0.201601 0.399106 
0.02325 0.0013125 1.98208 2.30018e+21 1.52962e-05 0.329687 1.13915 2.1253 
0.028875 0.00309375 1.98654 2.30835e+21 1.53505e-05 1.10313 2.35707 2.2675 
0.029625 0.00309375 2.02523 2.44371e+21 1.62506e-05 4.81859 2.52361 3.53791 
0.028875 0.00328125 1.99729 2.33511e+21 1.55285e-05 -1.99137 7.3884 -2.27732 
0.029625 0.00328125 1.98958 2.33856e+21 1.55514e-05 5.86994 -1.75378 -1.25856 
0.027375 0.00346875 1.97708 2.27414e+21 1.5123e-05 -0.428706 1.78957 4.58313 
0.027375 0.00365625 1.99321 2.32777e+21 1.54797e-05 2.68675 2.2679 -1.13947 
0.028125 0.00365625 1.92938 2.22562e+21 1.48004e-05 2.02477 -4.2701 1.38457 
0.024375 0.00515625 2.044 2.2564e+21 1.50051e-05 0.162785 -3.95823 1.10132 
0.027375 0.00459375 2.00383 2.37502e+21 1.57939e-05 -0.217714 -1.20413 -4.22565 
0.028125 0.00478125 1.99771 2.27241e+21 1.51116e-05 -1.83972 -0.162028 1.50157 
0.025875 0.00590625 2.00596 2.30521e+21 1.53297e-05 3.22407 -2.14842 0.241838 
0.006375 0.00159375 1.97241 4.22965e+21 2.81272e-05 22.5453 17.6994 -3.39971 
0.007125 0.00159375 1.9822 3.90571e+21 2.5973e-05 22.655 17.6214 -2.2036 
0.006375 0.00178125 1.96174 3.27617e+21 2.17865e-05 4.40283 18.7402 -2.09633 
0.007125 0.00178125 1.88166 3.51364e+21 2.33657e-05 20.6571 17.6491 -3.7021 
0.006375 0.00234375 2.03508 3.12368e+21 2.07725e-05 -7.1366 -7.56909 1.95253 
0.007125 0.00234375 2.0495 2.96976e+21 1.97489e-05 2.44467 17.7048 -3.8185 
0.006375 0.00253125 1.83379 3.06835e+21 2.04045e-05 -3.31592 0.451533 -1.15676 
0.007125 0.00253125 1.96901 3.05829e+21 2.03376e-05 4.7599 8.62076 -4.21688 
0.007875 0.00271875 1.9113 3.28031e+21 2.1814e-05 0.136934 14.1257 -4.46018 
0.008625 0.00271875 1.95033 3.28031e+21 2.1814e-05 -1.17855 12.3094 -0.273237 
0.007875 0.00290625 1.97943 3.11541e+21 2.07174e-05 -1.31351 14.4459 -0.718774 
0.008625 0.00290625 1.96253 3.37243e+21 2.24266e-05 3.12479 13.9882 -1.62325 
0.006375 0.00309375 1.97354 3.2444e+21 2.15753e-05 2.53329 5.25656 -0.803622 
0.007125 0.00309375 1.97178 3.13511e+21 2.08485e-05 -1.25713 8.79918 -0.208355 
0.006375 0.00328125 2.01025 2.76152e+21 1.83641e-05 -1.40063 7.34055 -1.34955 
0.007125 0.00328125 1.98044 2.96976e+21 1.97489e-05 -0.550263 8.74793 1.06662 
0.006375 0.00421875 2.05882 3.17901e+21 2.11404e-05 -4.26863 1.72026 1.00229 
0.006375 0.00440625 2.07879 3.02929e+21 2.01448e-05 -3.89802 2.14114 -0.655004 
0.007125 0.00440625 1.97894 2.97952e+21 1.98138e-05 0.944868 5.62426 0.51442 
0.006375 0.00496875 1.96087 2.78031e+21 1.8489e-05 5.3904 0.351995 0.248159 
0.006375 0.00515625 2.05453 2.82736e+21 1.8802e-05 -0.552692 4.91855 -0.240362 
0.006375 0.00534375 2.05215 2.98628e+21 1.98588e-05 1.93788 3.61195 -0.0553274 
0.006375 0.00553125 2.04125 2.85436e+21 1.89815e-05 -1.76504 4.49405 2.01456 
0.010125 0.00534375 0 0 0 0 0 0 
0.010125 0.00553125 0 0 0 0 0 0 
0.010125 0.00609375 0 0 0 0 0 0 
0.010125 0.00628125 0 0 0 0 0 0 
0.010125 0.00834375 0 0 0 0 0 0 
0.010125 0.00853125 0 0 0 0 0 0 
0.013875 0.00271875 2.05115 2.24793e+21 1.49487e-05 0.630716 1.61573 -5.61157 
0.014625 0.00271875 1.96644 2.26874e+21 1.50871e-05 -1.1638 2.41893 1.17388 
0.013875 0.00290625 1.8912 2.2392e+21 1.48907e-05 -3.34738 -1.26172 -2.43197 
0.014625 0.00290625 2.05065 2.39107e+21 1.59006e-05 0.378336 4.16419 1.35509 
0.015375 0.00346875 1.95815 2.19257e+21 1.45806e-05 -3.86375 -0.666948 0.313634 
0.016125 0.00346875 2.00953 2.31982e+21 1.54268e-05 0.418596 1.90619 -0.991467 
0.015375 0.00365625 2.10853 2.36801e+21 1.57473e-05 1.7811 4.75555 0.597539 
0.016125 0.00365625 1.99764 2.42373e+21 1.61178e-05 0.674899 3.23223 4.6145 
0.015375 0.00384375 2.03672 2.36733e+21 1.57427e-05 4.07606 2.31974 1.17803 
0.016125 0.00384375 1.9739 2.29077e+21 1.52336e-05 4.39291 -1.42817 1.69152 
0.015375 0.00403125 2.0159 2.20949e+21 1.46931e-05 3.1499 -2.27548 2.1686 
0.016125 0.00403125 1.9698 2.43971e+21 1.62241e-05 -0.140941 -2.74314 0.95582 
0.016875 0.00496875 2.01436 2.29827e+21 1.52835e-05 -2.85037 -5.54469 1.23983 
0.017625 0.00496875 1.95182 2.45999e+21 1.6359e-05 1.21931 -1.87292 -1.55622 
0.016875 0.00571875 2.02452 2.26799e+21 1.50821e-05 3.01971 -2.55287 -3.08775 
0.012375 0.00609375 2.03407 2.00584e+21 1.33388e-05 -5.77622 14.6313 -13.8421 
0.012375 0.00628125 1.70511 2.56759e+21 1.70745e-05 -9.17387 -5.42073 1.43645 
0.019875 0.00346875 2.04051 2.41444e+21 1.6056e-05 2.30785 1.85595 -3.15153 
0.020625 0.00346875 2.002 2.46012e+21 1.63598e-05 1.18496 1.21562 -3.21459 
0.019875 0.00365625 2.06005 2.27514e+21 1.51297e-05 3.0054 -0.873859 1.4168 
0.020625 0.00365625 1.98204 2.33396e+21 1.55208e-05 5.12667 1.39356 -0.0294109 
0.018375 0.00384375 1.99539 2.39088e+21 1.58994e-05 -0.133277 1.12551 -0.450667 
0.019125 0.00384375 1.88605 2.30255e+21 1.5312e-05 -1.01867 -0.865394 -4.56752 
0.018375 0.00403125 2.00284 2.18703e+21 1.45438e-05 3.7051 -1.81697 1.57262 
0.019125 0.00403125 1.94436 2.31337e+21 1.53839e-05 3.37067 -0.564777 1.42718 
0.021375 0.00421875 2.01207 2.30445e+21 1.53246e-05 0.101851 -3.48563 3.06986 
0.022125 0.00421875 2.03788 2.13812e+21 1.42185e-05 1.37363 1.98016 4.18547 
0.021375 0.00440625 2.04886 2.41958e+21 1.60902e-05 -0.764379 0.139159 1.32269 
0.022125 0.00440625 1.95782 2.47865e+21 1.6483e-05 3.39746 -2.01861 0.599255 
0.018375 0.00496875 2.02667 2.38255e+21 1.5844e-05 2.92278 0.182165 -2.09419 
0.019125 0.00496875 2.02484 2.33927e+21 1.55562e-05 -2.28642 -0.757723 0.125839 
0.019125 0.00515625 1.94142 2.27616e+21 1.51365e-05 2.11842 2.28245 -0.59507 
0.019875 0.00496875 1.9325 2.33244e+21 1.55107e-05 0.450153 -0.255252 -2.6902 
0.020625 0.00515625 1.9788 2.23665e+21 1.48737e-05 5.9554 -1.57194 -0.258834 
0.022125 0.00459375 1.9823 2.37009e+21 1.57611e-05 -0.578438 -0.382284 -1.44033 
0.021375 0.00478125 1.9922 2.35053e+21 1.5631e-05 0.796974 -2.35291 0.548174 
0.022125 0.00478125 1.99173 2.24401e+21 1.49227e-05 0.591178 3.85887 3.59054 
0.022875 0.00459375 2.01107 2.23212e+21 1.48436e-05 1.9358 3.10906 1.83447 
0.023625 0.00459375 1.94855 2.26415e+21 1.50566e-05 3.28338 1.9584 0.211321 
0.022875 0.00478125 1.96986 2.36473e+21 1.57255e-05 -0.184785 -2.07225 -2.85622 
0.023625 0.00478125 1.92888 2.33633e+21 1.55366e-05 0.553487 1.91374 -1.33122 
0.023625 0.00496875 2.03606 2.29827e+21 1.52835e-05 2.81325 1.97813 0.915424 
0.023625 0.00553125 2.01522 2.31827e+21 1.54165e-05 1.06407 0.275365 -2.54025 
0.018375 0.0128438 0 0 0 0 0 0 
0.018375 0.0130313 0 0 0 0 0 0 
0.018375 0.0139688 0 0 0 0 0 0 
0.018375 0.0141563 0 0 0 0 0 0 
0.018375 0.0154687 0 0 0 0 0 0 
0.018375 0.0156563 0 0 0 0 0 0 
0.018375 0.0162188 0 0 0 0 0 0 
0.018375 0.0164062 0 0 0 0 0 0 
0.018375 0.0169687 0 0 0 0 0 0 
0.018375 0.0171562 0 0 0 0 0 0 
0.018375 0.0177187 0 0 0 0 0 0 
0.018375 0.0179062 0 0 0 0 0 0 
0.018375 0.0184687 0 0 0 0 0 0 
0.018375 0.0186562 0 0 0 0 0 0 
0.018375 0.0192187 0 0 0 0 0 0 
0.018375 0.0194062 0 0 0 0 0 0 
0.018375 0.0199687 0 0 0 0 0 0 
0.018375 0.0201562 0 0 0 0 0 0 
0.018375 0.0210937 0 0 0 0 0 0 
0.018375 0.0212812 0 0 0 0 0 0 
0.010125 0.00759375 0 0 0 0 0 0 
0.010125 0.00778125 0 0 0 0 0 0 
0.0264375 0.00867188 2.02296 2.40139e+21 1.59692e-05 0.10519 -1.43931 6.18124 
0.0268125 0.00867188 2.00037 2.33874e+21 1.55526e-05 4.81985 -3.15447 4.15173 
0.0264375 0.00876563 2.01582 2.2156e+21 1.47338e-05 -0.676812 0.311801 -3.65577 
0.0268125 0.00876563 2.0595 2.20527e+21 1.46651e-05 -1.77813 1.3677 -0.234288 
0.0241875 0.0122344 1.93017 2.37189e+21 1.5773e-05 0.892008 -0.899522 0.405894 
0.0245625 0.0122344 1.8935 2.40519e+21 1.59945e-05 0.0393091 -1.84763 0.0206562 
0.0241875 0.0123281 2.02937 2.43464e+21 1.61903e-05 4.31438 2.94228 -0.374626 
0.0245625 0.0123281 1.96378 2.33549e+21 1.5531e-05 1.82384 2.11303 -4.90903 
0.0286875 0.0122344 1.97712 2.29788e+21 1.52809e-05 0.130066 -1.42574 0.458556 
0.0290625 0.0122344 2.00381 2.31268e+21 1.53793e-05 1.15271 -5.03347 -2.29611 
0.0286875 0.0123281 2.04455 2.35752e+21 1.56775e-05 0.342753 5.23883 -5.1703 
0.0290625 0.0123281 1.98337 2.3208e+21 1.54333e-05 -4.31301 3.44766 -2.51125 
0.0294375 0.0122344 2.04943 2.32378e+21 1.54532e-05 -2.37801 3.18422 -3.37466 
0.0298125 0.0122344 1.97783 2.37189e+21 1.5773e-05 1.42599 1.90574 1.10623 
0.0294375 0.0123281 1.90372 2.28041e+21 1.51647e-05 0.0973999 0.306315 -0.560979 
0.0298125 0.0123281 2.02603 2.33182e+21 1.55066e-05 0.954135 -2.18727 3.91722 
0.0279375 0.0135469 2.02322 2.30917e+21 1.5356e-05 -0.217755 1.39746 2.53366 
0.0283125 0.0135469 1.96146 2.27241e+21 1.51116e-05 -4.07145 -1.29306 0.637482 
0.0279375 0.0136406 1.95247 2.31322e+21 1.53829e-05 -2.55371 -4.07237 -0.25987 
0.0283125 0.0136406 2.11111 2.33313e+21 1.55153e-05 -1.12616 -1.48952 2.0159 
0.0249375 0.0142969 1.98408 2.25137e+21 1.49716e-05 -1.82634 0.0678688 -1.95712 
0.0253125 0.0142969 1.89609 2.2007e+21 1.46347e-05 2.96574 -3.2567 2.35396 
0.0253125 0.0143906 1.98528 2.33737e+21 1.55435e-05 3.75571 1.88928 0.372643 
0.0256875 0.0148594 1.93465 2.32456e+21 1.54584e-05 2.27839 1.82162 -2.72789 
0.0260625 0.0148594 1.99547 2.20879e+21 1.46885e-05 1.50091 -2.03155 3.11639 
0.0256875 0.0149531 1.98529 2.36751e+21 1.5744e-05 5.46551 0.00767044 -1.10064 
0.0260625 0.0149531 1.95429 2.24944e+21 1.49588e-05 1.60493 0.0440611 0.017174 
0.0256875 0.0152344 1.87632 2.30895e+21 1.53545e-05 4.97455 0.65685 2.41768 
0.0260625 0.0152344 2.073 2.23763e+21 1.48802e-05 -1.02523 0.143619 1.60313 
0.0256875 0.0153281 1.95084 2.29483e+21 1.52606e-05 1.03898 -0.133601 -0.139776 
0.0260625 0.0153281 2.02748 2.46908e+21 1.64194e-05 -0.39931 -0.0735128 0.867794 
0.0264375 0.0154219 2.10067 2.38949e+21 1.58901e-05 2.38163 -2.75474 1.87051 
0.0268125 0.0154219 2.06881 2.23097e+21 1.4836e-05 1.44294 -2.86817 3.57825 
0.0264375 0.0155156 2.03739 2.47717e+21 1.64732e-05 0.951682 4.43914 1.85819 
0.0268125 0.0155156 2.0092 2.27001e+21 1.50956e-05 -0.966798 3.50433 0.293999 
0.0286875 0.0154219 2.01636 2.40123e+21 1.59682e-05 -0.033859 -1.80385 -1.63429 
0.0290625 0.0154219 2.00222 2.23978e+21 1.48945e-05 2.38777 -4.89948 -0.865664 
0.0286875 0.0155156 1.9907 2.33128e+21 1.5503e-05 -2.17441 0.25048 0.0436027 
0.0290625 0.0155156 1.95202 2.1533e+21 1.43194e-05 -0.020091 0.888602 -1.5566 
0.0294375 0.0154219 1.95362 2.36307e+21 1.57144e-05 2.76935 2.46036 0.539984 
0.0298125 0.0154219 1.8813 2.29262e+21 1.52459e-05 -1.28595 -2.48654 4.2411 
0.0294375 0.0155156 2.06288 2.19998e+21 1.46299e-05 -0.932225 -1.05822 0.839584 
0.0298125 0.0155156 1.99454 2.34587e+21 1.56001e-05 2.11716 -0.458967 2.69745 
0.0241875 0.0157969 1.98317 2.33276e+21 1.55129e-05 0.323018 1.03097 -0.9387 
0.0245625 0.0157969 1.95756 2.35856e+21 1.56844e-05 -0.508339 -2.03803 3.7674 
0.0241875 0.0158906 2.01535 2.37883e+21 1.58192e-05 -0.76319 -1.82744 2.01401 
0.0245625 0.0158906 2.08947 2.38168e+21 1.58382e-05 -2.92233 -2.55708 -1.22172 
0.0264375 0.0157969 2.00539 2.3299e+21 1.54938e-05 3.39264 -1.61126 -2.47311 
0.0268125 0.0157969 2.03772 2.22673e+21 1.48077e-05 1.02615 -3.23614 1.82812 
0.0264375 0.0158906 2.00943 2.34179e+21 1.55729e-05 1.55779 -0.619504 2.61188 
0.0268125 0.0158906 1.98969 2.29336e+21 1.52509e-05 -0.124933 -3.24532 0.027401 
0.0264375 0.0159844 2.07169 2.22327e+21 1.47847e-05 0.527105 0.349225 -4.96705 
0.0268125 0.0159844 1.9545 2.1468e+21 1.42762e-05 2.84782 -1.12308 -2.1862 
0.0264375 0.0160781 1.98557 2.30885e+21 1.53539e-05 -2.66107 2.06438 0.250764 
0.0268125 0.0160781 1.91939 2.444e+21 1.62526e-05 0.461422 0.273247 -2.17916 
0.0241875 0.0163594 2.03288 2.20274e+21 1.46482e-05 3.67593 1.0426 0.89304 
0.0245625 0.0163594 1.9987 2.24702e+21 1.49427e-05 2.73534 0.817537 -1.17317 
0.0245625 0.0164531 2.13938 2.34978e+21 1.5626e-05 3.35513 2.53328 -0.716738 
0.0294375 0.0161719 2.02186 2.38785e+21 1.58792e-05 -0.692129 0.6891 0.820055 
0.0298125 0.0161719 2.03801 2.26747e+21 1.50787e-05 -1.07629 0.0603596 -0.670502 
0.0294375 0.0162656 1.94776 2.40191e+21 1.59727e-05 1.60562 -2.50549 1.10841 
0.0298125 0.0162656 1.96476 2.4047e+21 1.59912e-05 2.53531 3.44291 -2.01427 
0.0286875 0.0163594 1.92235 2.30237e+21 1.53107e-05 -0.218544 -0.686631 -0.603597 
0.0286875 0.0164531 1.92386 2.43783e+21 1.62116e-05 -2.32474 0.356963 2.82392 
0.0290625 0.0164531 2.22672 2.26448e+21 1.50588e-05 -3.33993 -1.65941 -5.17796 
0.0279375 0.0167344 1.95555 2.37521e+21 1.57952e-05 -0.950775 -1.14381 2.91149 
0.0283125 0.0167344 1.9922 2.25618e+21 1.50036e-05 -2.60928 -1.30745 -1.80546 
0.0279375 0.0168281 2.05085 2.39157e+21 1.5904e-05 -0.295681 3.03677 -2.36637 
0.0286875 0.0165469 2.02829 2.31184e+21 1.53738e-05 1.19618 -0.722115 1.55189 
0.0286875 0.0166406 2.03255 2.2961e+21 1.52691e-05 -1.41002 -1.86729 -0.391181 
0.0294375 0.0165469 1.97935 2.30364e+21 1.53192e-05 0.108631 -4.95116 1.03291 
0.0298125 0.0165469 2.07553 2.29269e+21 1.52464e-05 -1.6675 -0.463932 -0.359247 
0.0294375 0.0166406 2.0663 2.31786e+21 1.54138e-05 6.0284 -0.523616 -1.98777 
0.0298125 0.0166406 2.07531 2.31786e+21 1.54138e-05 5.54852 -2.58133 1.77642 
0.0271875 0.0169219 2.03097 2.28201e+21 1.51754e-05 1.30291 -0.704821 -4.99649 
0.0275625 0.0169219 1.9278 2.25526e+21 1.49975e-05 0.514746 3.93775 -2.69496 
0.0271875 0.0170156 1.9615 2.34926e+21 1.56226e-05 -2.11976 1.29595 0.970294 
0.0275625 0.0170156 2.02135 2.33063e+21 1.54987e-05 -0.235773 -4.60711 -2.34444 
0.0279375 0.0169219 2.02553 2.18838e+21 1.45527e-05 1.75335 4.8296 1.06164 
0.0283125 0.0169219 2.04787 2.29271e+21 1.52465e-05 3.50665 2.48074 0.0624062 
0.0279375 0.0170156 1.97465 2.22155e+21 1.47733e-05 1.83073 0.79205 -0.591257 
0.0283125 0.0170156 2.03501 2.12045e+21 1.4101e-05 1.69042 2.9527 3.26981 
0.0241875 0.0178594 1.992 2.28643e+21 1.52048e-05 -3.70475 -3.37031 0.838446 
0.0245625 0.0178594 2.05609 2.34727e+21 1.56093e-05 1.37814 -0.230867 4.51916 
0.0241875 0.0179531 2.03483 2.48126e+21 1.65004e-05 -3.45083 -1.14923 -1.67229 
0.0271875 0.0172969 1.98267 2.43669e+21 1.6204e-05 0.00672478 0.49466 3.52008 
0.0275625 0.0172969 1.938 2.2273e+21 1.48116e-05 0.787708 2.66005 0.263956 
0.0271875 0.0173906 1.9094 2.3038e+21 1.53203e-05 -3.06322 -0.472609 2.41026 
0.0275625 0.0173906 2.05125 2.30901e+21 1.53549e-05 1.45881 -0.640369 -3.32674 
0.0271875 0.0179531 2.00805 2.42579e+21 1.61315e-05 1.64226 1.81418 1.2233 
0.0275625 0.0179531 1.96362 2.34257e+21 1.55781e-05 -0.458127 4.27278 0.61585 
0.0283125 0.0178594 1.93493 2.4081e+21 1.60139e-05 0.313449 0.541955 -0.73265 
0.0279375 0.0179531 1.88461 2.40561e+21 1.59973e-05 -3.41079 -1.05586 -3.6862 
0.0283125 0.0179531 2.03866 2.21397e+21 1.47229e-05 -1.89091 -3.83523 1.32061 
0.0241875 0.0180469 1.93113 2.24261e+21 1.49133e-05 -0.66958 -4.77491 -1.34051 
0.0245625 0.0180469 1.92227 2.26518e+21 1.50635e-05 2.28372 -2.27482 0.842206 
0.0245625 0.0181406 2.05067 2.29091e+21 1.52346e-05 2.22519 -1.06595 -1.55873 
0.0249375 0.0182344 2.0378 2.29155e+21 1.52388e-05 -3.07377 -0.575948 2.26947 
0.0253125 0.0182344 2.01902 2.29651e+21 1.52718e-05 2.70091 -1.16312 2.57713 
0.0249375 0.0183281 2.00753 2.39097e+21 1.59e-05 0.467689 0.974815 0.753274 
0.0264375 0.0182344 1.93698 2.28658e+21 1.52058e-05 -1.37602 -2.57531 -3.50319 
0.0268125 0.0182344 2.01685 2.31389e+21 1.53874e-05 -2.64801 0.786331 -2.02703 
0.0268125 0.0183281 1.89685 2.40826e+21 1.6015e-05 2.348 -0.818364 2.05545 
0.0241875 0.0184219 2.0897 2.39355e+21 1.59171e-05 -1.44089 -2.53263 -0.770145 
0.0245625 0.0184219 2.14471 2.31491e+21 1.53942e-05 -0.0104363 0.64871 2.04425 
0.0245625 0.0185156 2.13451 2.18583e+21 1.45358e-05 -1.21459 -0.332484 -3.36625 
0.0260625 0.0184219 2.03505 2.27314e+21 1.51164e-05 2.01371 2.38797 -1.60301 
0.0256875 0.0185156 1.9247 2.23718e+21 1.48772e-05 2.64797 0.0678125 1.8492 
0.0260625 0.0185156 2.01464 2.40099e+21 1.59666e-05 -2.20981 1.86841 2.12647 
0.0271875 0.0180469 1.97513 2.26518e+21 1.50635e-05 4.10689 2.36425 1.47623 
0.0275625 0.0180469 1.93719 2.26518e+21 1.50635e-05 2.9346 2.25851 -0.236241 
0.0271875 0.0181406 2.03109 2.24349e+21 1.49192e-05 -1.14747 -2.26349 -0.589339 
0.0279375 0.0180469 1.94099 2.27522e+21 1.51302e-05 0.988945 0.362624 -1.30299 
0.0279375 0.0181406 2.05524 2.3508e+21 1.56328e-05 1.57356 -0.777778 3.20691 
0.0271875 0.0182344 2.04477 2.38589e+21 1.58662e-05 -0.701235 -0.646483 1.45165 
0.0275625 0.0182344 1.96052 2.32382e+21 1.54534e-05 0.189122 2.60643 2.50333 
0.0271875 0.0183281 1.94746 2.3391e+21 1.5555e-05 -1.42755 2.10013 -1.04488 
0.0275625 0.0183281 2.02813 2.21066e+21 1.47009e-05 1.37463 -0.519544 3.66399 
0.0286875 0.0180469 2.01702 2.3881e+21 1.58809e-05 2.8646 -2.01678 -1.50115 
0.0290625 0.0180469 2.06086 2.33793e+21 1.55472e-05 -1.22495 2.49965 -0.640259 
0.0286875 0.0181406 1.91481 2.28093e+21 1.51682e-05 -1.6714 0.150092 0.868433 
0.0290625 0.0181406 1.9952 2.26096e+21 1.50354e-05 -1.64567 -0.653275 2.3256 
0.0249375 0.0187969 2.0185 2.29041e+21 1.52312e-05 -1.25059 -0.688378 -2.23262 
0.0253125 0.0187969 1.93202 2.34339e+21 1.55836e-05 0.540949 -0.236771 4.4592 
0.0253125 0.0188906 1.92249 2.32697e+21 1.54743e-05 -2.29008 -1.64691 1.12783 
0.0249375 0.0189844 1.99071 2.29163e+21 1.52393e-05 3.79739 3.53351 1.12665 
0.0253125 0.0189844 2.12535 2.37748e+21 1.58102e-05 -1.76091 1.46982 1.85246 
0.0253125 0.0190781 1.98606 2.30884e+21 1.53538e-05 2.905 1.40288 -1.70658 
0.0256875 0.0187969 1.93995 2.36748e+21 1.57437e-05 1.74182 0.448976 0.343461 
0.0260625 0.0187969 1.99212 2.30726e+21 1.53433e-05 2.39059 0.260271 0.426814 
0.0260625 0.0188906 2.04663 2.22392e+21 1.47891e-05 2.0962 -1.63887 2.11309 
0.0260625 0.0189844 1.96498 2.25109e+21 1.49698e-05 -1.49292 2.28576 1.72249 
0.0256875 0.0190781 1.9835 2.27562e+21 1.51329e-05 1.57127 -0.108665 3.27182 
0.0260625 0.0190781 1.92446 2.39427e+21 1.59219e-05 0.0121852 -1.6103 -4.34673 
0.0264375 0.0189844 2.02546 2.24394e+21 1.49222e-05 1.07439 -0.131527 -2.93848 
0.0268125 0.0189844 2.04832 2.26778e+21 1.50808e-05 0.325635 -0.68344 1.98295 
0.0260625 0.0191719 2.03355 2.22908e+21 1.48234e-05 1.73708 -2.2816 4.30888 
0.0264375 0.0191719 1.96272 2.35423e+21 1.56556e-05 1.13544 -3.64726 -0.861851 
0.0268125 0.0191719 1.97325 2.31172e+21 1.5373e-05 2.07998 0.0804007 1.29028 
0.0264375 0.0192656 2.05169 2.33572e+21 1.55325e-05 -1.27203 3.09593 2.34979 
0.0271875 0.0189844 2.00256 2.37986e+21 1.58261e-05 1.34601 0.111144 -5.9255 
0.0275625 0.0190781 2.07372 2.40613e+21 1.60008e-05 -1.91398 0.773699 1.56322 
0.0286875 0.0187969 2.0634 2.31931e+21 1.54234e-05 4.21255 -1.68372 1.47976 
0.0290625 0.0188906 2.00444 2.33655e+21 1.55381e-05 4.1562 1.05809 -3.08934 
0.0294375 0.0187969 1.92952 2.34098e+21 1.55675e-05 0.774276 -3.524 -0.198616 
0.0298125 0.0187969 2.13505 2.13386e+21 1.41902e-05 -1.16636 5.22448 0.163893 
0.0294375 0.0188906 2.04616 2.32457e+21 1.54584e-05 2.96267 0.991696 -0.607537 
0.0298125 0.0188906 1.97595 2.37969e+21 1.58249e-05 -1.85791 5.29701 0.41356 
0.0279375 0.0191719 2.09692 2.29047e+21 1.52316e-05 3.97333 -0.946433 1.49152 
0.0283125 0.0191719 2.00602 2.19366e+21 1.45878e-05 0.548288 -1.1587 -2.57909 
0.0279375 0.0192656 2.06439 2.26288e+21 1.50481e-05 -1.80896 1.23297 1.9888 