ITEM: TIMESTEP
500000
ITEM: NUMBER OF CELLS
24710
ITEM: BOX BOUNDS oo ao pp
0 0.12
0 0.03
-0.1 0.1
ITEM: CELLS xc yc f_out[1] f_out[2] f_out[3] f_out[4] f_out[5] f_out[6] 
0.003 0.00375 0 0 0 0 0 0 
0.003 0.00525 0 0 0 0 0 0 
0.003 0.00675 0 0 0 0 0 0 
0.003 0.00825 0 0 0 0 0 0 
0.003 0.00975 0 0 0 0 0 0 
0.003 0.01125 0 0 0 0 0 0 
0.003 0.01275 0 0 0 0 0 0 
0.003 0.01425 0 0 0 0 0 0 
0.003 0.01575 0 0 0 0 0 0 
0.003 0.01725 0 0 0 0 0 0 
0.003 0.01875 0 0 0 0 0 0 
0.003 0.02025 0 0 0 0 0 0 
0.003 0.02175 0 0 0 0 0 0 
0.003 0.02325 0 0 0 0 0 0 
0.027 0.02325 0 0 0 0 0 0 
0.003 0.02475 0 0 0 0 0 0 
0.027 0.02475 0 0 0 0 0 0 
0.003 0.02625 0 0 0 0 0 0 
0.027 0.02625 0 0 0 0 0 0 
0.003 0.02775 0 0 0 0 0 0 
0.027 0.02775 0 0 0 0 0 0 
0.003 0.02925 0 0 0 0 0 0 
0.027 0.02925 0 0 0 0 0 0 
0.009 0.01425 0 0 0 0 0 0 
0.009 0.01575 0 0 0 0 0 0 
0.009 0.01725 0 0 0 0 0 0 
0.009 0.01875 0 0 0 0 0 0 
0.009 0.02025 0 0 0 0 0 0 
0.009 0.02175 0 0 0 0 0 0 
0.009 0.02325 0 0 0 0 0 0 
0.009 0.02475 0 0 0 0 0 0 
0.009 0.02625 0 0 0 0 0 0 
0.009 0.02775 0 0 0 0 0 0 
0.009 0.02925 0 0 0 0 0 0 
0.015 0.01425 0 0 0 0 0 0 
0.015 0.01575 0 0 0 0 0 0 
0.015 0.01725 0 0 0 0 0 0 
0.015 0.01875 0 0 0 0 0 0 
0.015 0.02025 0 0 0 0 0 0 
0.015 0.02175 0 0 0 0 0 0 
0.015 0.02325 0 0 0 0 0 0 
0.015 0.02475 0 0 0 0 0 0 
0.015 0.02625 0 0 0 0 0 0 
0.015 0.02775 0 0 0 0 0 0 
0.015 0.02925 0 0 0 0 0 0 
0.021 0.02325 0 0 0 0 0 0 
0.021 0.02475 0 0 0 0 0 0 
0.021 0.02625 0 0 0 0 0 0 
0.021 0.02775 0 0 0 0 0 0 
0.021 0.02925 0 0 0 0 0 0 
0.0015 0.000375 0 0 0 0 0 0 
0.0015 0.001125 0 0 0 0 0 0 
0.0015 0.001875 0 0 0 0 0 0 
0.0015 0.002625 0 0 0 0 0 0 
0.0045 0.002625 0 0 0 0 0 0 
0.0255 0.022125 0 0 0 0 0 0 
0.0285 0.022125 0 0 0 0 0 0 
0.0105 0.000375 2.11259 2.86145e+21 1.90287e-05 -1.97497 3.99693 -0.0969367 
0.0105 0.001125 1.99506 2.7618e+21 1.8366e-05 -0.0579214 3.05205 0.681002 
0.0075 0.013125 0 0 0 0 0 0 
0.0105 0.013125 0 0 0 0 0 0 
0.0135 0.013125 0 0 0 0 0 0 
0.0165 0.013125 0 0 0 0 0 0 
0.0195 0.022125 0 0 0 0 0 0 
0.0225 0.022125 0 0 0 0 0 0 
0.00375 0.0001875 1.90406 7.59657e+21 5.05172e-05 23.0563 1.10072 -1.36761 
0.00525 0.0001875 2.02766 6.17191e+21 4.10432e-05 39.1145 -0.300387 -7.08523 
0.00375 0.0016875 2.00856 7.82135e+21 5.2012e-05 15.2325 2.82544 2.63524 
0.00525 0.0016875 1.93898 5.48639e+21 3.64845e-05 11.6231 -3.77585 -1.84841 
0.00375 0.0020625 0 0 0 0 0 0 
0.00525 0.0020625 0 0 0 0 0 0 
0.00825 0.0009375 1.97169 2.89129e+21 1.92271e-05 19.1978 8.76493 0.824246 
0.01125 0.0076875 0 0 0 0 0 0 
0.01125 0.0080625 0 0 0 0 0 0 
0.01125 0.0091875 0 0 0 0 0 0 
0.0255 0.000375 1.92846 1.65238e+21 1.09883e-05 0.755545 -1.25618 -2.72054 
0.0285 0.000375 2.01585 1.67502e+21 1.11389e-05 4.82082 1.72352 1.3872 
0.0135 0.000375 2.17069 1.66321e+21 1.10603e-05 0.536485 3.38482 1.99767 
0.0165 0.000375 1.95149 1.67313e+21 1.11263e-05 0.343579 0.953881 -0.536704 
0.0195 0.000375 2.01463 1.6769e+21 1.11514e-05 -1.65304 1.70978 -3.65231 
0.0225 0.000375 2.04205 1.54298e+21 1.02608e-05 3.554 1.83889 1.14028 
0.01725 0.0016875 1.91351 1.73873e+21 1.15626e-05 -0.796748 -1.52338 0.245335 
0.01725 0.0020625 1.93595 1.76007e+21 1.17045e-05 1.09075 1.38151 -1.59505 
0.003375 0.00084375 2.00717 8.11873e+21 5.39895e-05 25.9322 -6.71656 -1.48484 
0.004125 0.00084375 1.91573 7.20308e+21 4.79005e-05 29.4422 -8.47602 -3.57308 
0.003375 0.00103125 1.94132 7.95668e+21 5.29119e-05 23.9955 -2.61665 -4.47217 
0.004125 0.00103125 1.96706 6.68361e+21 4.4446e-05 28.9384 1.71015 -1.32702 
0.003375 0.00121875 2.08611 8.68758e+21 5.77724e-05 23.3337 -2.87965 2.72705 
0.004125 0.00121875 1.99367 7.10402e+21 4.72418e-05 21.8768 1.41434 4.16302 
0.003375 0.00140625 1.94625 8.17521e+21 5.43651e-05 21.5306 -1.04869 -1.29958 
0.004125 0.00140625 1.94765 7.39623e+21 4.91849e-05 18.3675 0.669672 -4.59706 
0.004875 0.00121875 2.04073 6.16611e+21 4.10046e-05 25.727 1.39073 0.287664 
0.005625 0.00121875 1.93384 5.84109e+21 3.88432e-05 26.6522 -0.7885 -7.03124 
0.004875 0.00140625 1.99798 6.01195e+21 3.99795e-05 16.9889 1.06084 2.63732 
0.005625 0.00140625 1.95075 5.23933e+21 3.48416e-05 24.6471 3.74451 -2.23323 
0.025875 0.00684375 1.9426 1.72649e+21 1.14812e-05 0.822796 -0.956077 -0.796186 
0.026625 0.00684375 1.99483 1.68349e+21 1.11952e-05 -1.97499 -0.328261 2.66639 
0.026625 0.00703125 1.9484 1.68206e+21 1.11857e-05 0.535353 -0.586051 1.57155 
0.024375 0.0216562 1.99875 1.74172e+21 1.15825e-05 2.25217 -1.36191 2.17735 
0.025125 0.0216562 2.16643 1.61297e+21 1.07263e-05 -5.92424 -5.42585 -4.60165 
0.025875 0.0216562 1.97816 1.74888e+21 1.163e-05 0.944289 -1.11249 -1.66177 
0.026625 0.0216562 2.08247 1.65947e+21 1.10354e-05 -3.32693 3.50983 1.20552 
0.027375 0.0216562 1.93986 1.64874e+21 1.09641e-05 0.186335 5.61316 -0.863063 
0.028125 0.0216562 1.9536 1.74888e+21 1.163e-05 2.06036 2.6569 0.296922 
0.028875 0.0216562 2.10794 1.58436e+21 1.0536e-05 0.0640687 -0.354293 -6.55979 
0.029625 0.0216562 2.03923 1.59509e+21 1.06073e-05 -4.34484 -0.970305 2.24364 
0.007875 0.00384375 1.93414 2.21716e+21 1.47441e-05 -2.87675 12.9927 -2.3817 
0.008625 0.00384375 1.92593 2.28783e+21 1.52141e-05 -0.291037 8.5239 0.235291 
0.007875 0.00403125 1.94665 2.15896e+21 1.43571e-05 1.09393 14.1854 -2.573 
0.008625 0.00403125 1.98593 2.18142e+21 1.45064e-05 -2.30376 12.4791 -0.336841 
0.006375 0.00421875 1.91593 2.13275e+21 1.41828e-05 -0.604534 3.88562 0.540573 
0.007125 0.00421875 1.97314 2.22933e+21 1.48251e-05 -0.11396 4.95051 0.269812 
0.006375 0.00440625 1.9968 1.92641e+21 1.28107e-05 -1.96883 1.2048 -1.2792 
0.007125 0.00440625 2.12103 2.19868e+21 1.46212e-05 1.7296 7.52434 1.5954 
0.007875 0.00496875 1.89638 2.132e+21 1.41778e-05 0.345774 7.60279 3.6449 
0.008625 0.00496875 1.99393 2.10694e+21 1.40112e-05 1.07131 9.34843 -0.489202 
0.008625 0.00515625 2.08706 2.14666e+21 1.42753e-05 -3.19864 6.91909 1.26913 
0.006375 0.00571875 1.94705 2.06687e+21 1.37447e-05 -0.750841 1.37542 0.778884 
0.006375 0.00590625 2.08583 2.19886e+21 1.46224e-05 -0.890655 6.92562 -5.46787 
0.007875 0.00571875 2.03934 1.91176e+21 1.27132e-05 -2.30124 7.83369 1.81969 
0.006375 0.00609375 1.97132 1.93271e+21 1.28525e-05 -1.59805 3.17016 -4.27882 
0.006375 0.00628125 1.96185 1.91894e+21 1.27609e-05 -0.98944 6.64491 1.5886 
0.008625 0.00628125 2.03314 1.95858e+21 1.30245e-05 0.720555 6.99853 0.656009 
0.006375 0.00684375 1.88468 2.01548e+21 1.34029e-05 1.6461 2.6746 0.694538 
0.006375 0.00703125 2.03567 2.07642e+21 1.38082e-05 -1.95635 1.99723 1.88265 
0.006375 0.00759375 1.96329 2.00924e+21 1.33614e-05 1.35157 1.28544 4.60155 
0.006375 0.00778125 1.89514 1.97991e+21 1.31664e-05 1.27421 2.44242 1.23297 
0.006375 0.00834375 2.02298 1.92273e+21 1.27862e-05 0.445303 4.21899 1.45607 
0.006375 0.00853125 1.87861 2.01231e+21 1.33819e-05 -0.362147 0.342733 4.3038 
0.006375 0.00946875 2.01824 1.89823e+21 1.26233e-05 -0.0664557 2.97407 -4.52666 
0.006375 0.00965625 2.01627 1.81303e+21 1.20566e-05 2.92281 -1.07951 -2.97639 
0.010125 0.00946875 2.15116 1.71679e+21 1.14166e-05 9.53568 -5.10389 -0.0942325 
0.006375 0.00984375 2.07616 1.91646e+21 1.27445e-05 -0.875724 0.310507 1.99603 
0.006375 0.0102187 1.96303 1.97696e+21 1.31468e-05 1.01402 2.7459 -0.850708 
0.006375 0.0104062 1.98853 1.89444e+21 1.2598e-05 1.69984 2.96113 -2.66664 
0.006375 0.0107812 2.06286 1.84626e+21 1.22776e-05 3.05975 -0.267978 -3.36304 
0.006375 0.0113437 1.90441 1.87443e+21 1.2465e-05 0.906562 -3.76211 5.63169 
0.006375 0.0115312 2.0462 1.84395e+21 1.22623e-05 -0.622776 1.2621 0.373315 
0.006375 0.0120938 2.03868 2.00735e+21 1.33489e-05 -4.98741 -0.00707129 3.00239 
0.006375 0.0122813 2.01285 1.89377e+21 1.25936e-05 0.146694 0.816293 -0.525695 
0.006375 0.0124688 1.94485 1.84997e+21 1.23023e-05 -0.8716 -0.541975 -3.71785 
0.006375 0.0126563 1.87669 1.82358e+21 1.21268e-05 -2.61763 0.853822 -0.55609 
0.017625 0.00721875 1.95231 1.63523e+21 1.08743e-05 2.78088 -2.22546 2.07936 
0.017625 0.00740625 1.89852 1.65802e+21 1.10258e-05 -0.524928 1.51976 1.12156 
0.015375 0.00834375 2.02685 1.64535e+21 1.09415e-05 0.665758 -0.815998 2.63574 
0.012375 0.00946875 1.97884 1.71147e+21 1.13813e-05 -1.63349 -3.66718 -2.68441 
0.022875 0.00646875 2.05126 1.67086e+21 1.11112e-05 1.37373 -0.985063 -3.45435 
0.023625 0.00646875 2.03223 1.68136e+21 1.1181e-05 2.08794 -1.25801 -1.43045 
0.023625 0.00665625 2.0386 1.61869e+21 1.07643e-05 2.68614 0.295359 2.05623 
0.022875 0.00684375 2.06369 1.62396e+21 1.07993e-05 -0.345953 4.25994 1.67653 
0.023625 0.00684375 1.99052 1.64546e+21 1.09423e-05 -2.38005 -4.97764 -0.297834 
0.021375 0.00759375 1.97538 1.68415e+21 1.11996e-05 1.63027 1.77309 -2.09063 
0.022125 0.00759375 2.00735 1.71843e+21 1.14275e-05 2.56257 5.24824 -0.286583 
0.018375 0.0188437 0 0 0 0 0 0 
0.018375 0.0190312 0 0 0 0 0 0 
0.021375 0.0216562 1.8601 1.67735e+21 1.11544e-05 0.4113 -4.05119 1.99505 
0.022125 0.0216562 1.9782 1.77391e+21 1.17965e-05 2.75875 4.41775 -4.87395 
0.022875 0.0216562 2.00549 1.73815e+21 1.15587e-05 3.73073 2.9376 -1.51828 
0.023625 0.0216562 2.16947 1.63443e+21 1.0869e-05 -2.08257 -6.86263 0.646737 
0.02625 0.0016875 2.00438 1.6834e+21 1.11946e-05 -0.938079 1.65297 -0.81276 
0.01125 0.0061875 0 0 0 0 0 0 
0.01125 0.0065625 0 0 0 0 0 0 
0.01125 0.0069375 0 0 0 0 0 0 
0.01125 0.0073125 0 0 0 0 0 0 
0.01875 0.0016875 1.9718 1.63645e+21 1.08824e-05 3.61956 0.188543 0.454115 
0.02025 0.0016875 1.96425 1.65657e+21 1.10162e-05 3.03272 -1.02094 2.12268 
0.004875 0.00084375 1.91515 6.04951e+21 4.02293e-05 32.0779 -1.74925 1.15874 
0.005625 0.00084375 1.84676 5.35201e+21 3.55908e-05 40.7923 0.767586 0.115281 
0.004875 0.00103125 1.96646 6.35437e+21 4.22565e-05 26.0284 -1.53706 5.28947 
0.005625 0.00103125 1.83747 5.39956e+21 3.59071e-05 35.6625 -2.58906 -4.39642 
0.024375 0.00609375 2.00292 1.66225e+21 1.1054e-05 -0.800697 3.13722 2.15721 
0.025125 0.00609375 1.97617 1.64368e+21 1.09304e-05 0.738573 -0.505075 1.76705 
0.024375 0.00628125 1.92899 1.61623e+21 1.07479e-05 3.16149 -0.272721 3.394 
0.025125 0.00628125 2.02813 1.70813e+21 1.1359e-05 -0.871735 -3.4154 -0.0669952 
0.024375 0.00684375 2.00641 1.73641e+21 1.15471e-05 2.1966 1.08758 0.140593 
0.024375 0.00703125 1.98948 1.61606e+21 1.07468e-05 2.15479 3.44225 3.15195 
0.025125 0.00703125 1.91313 1.70459e+21 1.13356e-05 -1.11725 -0.133741 1.47913 
0.025875 0.00721875 1.95747 1.62583e+21 1.08118e-05 2.47031 1.34597 -2.0724 
0.026625 0.00721875 1.92974 1.68227e+21 1.11871e-05 -0.682643 -2.77819 -1.21981 
0.028875 0.00684375 2.0313 1.59088e+21 1.05794e-05 -1.42042 -0.904141 0.119064 
0.029625 0.00684375 1.96477 1.60908e+21 1.07003e-05 1.62385 -5.65599 -4.74486 
0.028875 0.00703125 2.00626 1.64182e+21 1.09181e-05 2.35256 1.05076 -1.81439 
0.029625 0.00703125 1.9902 1.75932e+21 1.16995e-05 2.66947 1.42181 0.207598 
0.029625 0.00740625 2.03005 1.69011e+21 1.12392e-05 2.5192 -0.0643593 1.211 
0.025875 0.00759375 1.92932 1.71843e+21 1.14275e-05 -0.239851 0.377601 -0.151793 
0.028875 0.00759375 1.95422 1.67967e+21 1.11698e-05 3.32228 0.401396 -1.8781 
0.029625 0.00778125 2.04767 1.65229e+21 1.09877e-05 4.87498 0.227448 -5.84403 
0.028875 0.00796875 2.00044 1.70431e+21 1.13337e-05 -0.532341 -2.81948 -0.148408 
0.029625 0.00815625 2.01026 1.62489e+21 1.08055e-05 -1.16868 -1.76567 -0.0912385 
0.027375 0.00871875 1.98447 1.61222e+21 1.07213e-05 5.37737 -3.22982 -1.28864 
0.007875 0.00234375 1.906 2.55448e+21 1.69873e-05 2.92786 13.749 -3.06376 
0.008625 0.00234375 2.10408 2.5255e+21 1.67946e-05 -0.858964 12.3911 0.389326 
0.007875 0.00253125 1.95717 2.45468e+21 1.63236e-05 0.823557 15.9453 2.09601 
0.008625 0.00253125 1.9412 2.47256e+21 1.64426e-05 2.82106 10.6367 1.55675 
0.007875 0.00346875 1.93092 2.23825e+21 1.48844e-05 -0.901918 7.53123 1.42851 
0.008625 0.00346875 1.96545 2.23825e+21 1.48844e-05 -0.530385 8.75373 -2.1094 
0.007875 0.00365625 2.08269 2.04918e+21 1.3627e-05 0.701947 11.5121 -1.28819 
0.008625 0.00365625 1.91714 2.13275e+21 1.41828e-05 -2.81718 6.87495 4.23941 
0.007875 0.00421875 2.06034 2.21055e+21 1.47002e-05 -1.87712 8.82148 0.0574765 
0.008625 0.00421875 1.9056 2.23738e+21 1.48786e-05 1.43169 10.8509 0.961506 
0.006375 0.00459375 1.994 2.10648e+21 1.40081e-05 4.42172 4.97408 -3.22274 
0.007125 0.00459375 1.90212 2.07198e+21 1.37787e-05 -2.35077 3.7655 0.700511 
0.006375 0.00478125 2.09786 2.15702e+21 1.43442e-05 1.16847 2.93988 5.60195 
0.007125 0.00478125 2.0339 2.08541e+21 1.3868e-05 3.22551 5.09907 -0.309334 
0.007875 0.00459375 1.98056 2.26169e+21 1.50402e-05 -0.425622 7.72631 -0.265952 
0.008625 0.00478125 1.91533 2.12092e+21 1.41041e-05 -0.442605 5.10495 1.72351 
0.006375 0.00646875 1.97533 1.93549e+21 1.2871e-05 -2.23918 5.18873 4.3486 
0.006375 0.00665625 2.06434 2.13601e+21 1.42045e-05 3.51493 -1.64388 -3.55722 
0.007125 0.00665625 1.98913 2.07438e+21 1.37946e-05 -0.157802 8.16998 -0.467405 
0.006375 0.00721875 1.96802 2.00191e+21 1.33127e-05 2.13214 0.821793 -1.05092 
0.006375 0.00740625 2.0029 1.95982e+21 1.30328e-05 -2.04612 2.46383 -4.02661 
0.006375 0.00815625 2.03211 1.95913e+21 1.30282e-05 -0.275834 3.02634 0.895417 
0.006375 0.00871875 1.94602 1.96173e+21 1.30455e-05 1.02312 4.49334 -1.49416 
0.006375 0.00890625 1.93648 2.0205e+21 1.34364e-05 0.923095 2.67381 -1.76584 
0.006375 0.00909375 1.93684 1.89717e+21 1.26162e-05 0.590758 0.443914 2.51692 
0.006375 0.00928125 2.03584 1.83141e+21 1.21789e-05 -3.61625 2.96117 -0.624273 
0.006375 0.0111562 1.86652 2.05811e+21 1.36864e-05 -1.5897 1.46961 -1.5987 
0.015375 0.00571875 2.08977 1.69407e+21 1.12655e-05 1.52126 0.187478 0.88561 
0.016125 0.00571875 1.99532 1.63865e+21 1.0897e-05 4.22247 0.132776 0.914526 
0.016125 0.00590625 1.89308 1.7955e+21 1.19401e-05 1.5222 -3.0366 -0.293404 
0.013875 0.00665625 1.93922 1.58809e+21 1.05608e-05 0.503051 -0.179582 3.21065 
0.014625 0.00665625 1.98707 1.6714e+21 1.11148e-05 -1.62648 -1.64105 -0.268647 
0.016875 0.00609375 1.96211 1.74025e+21 1.15727e-05 -0.185008 0.584352 -1.9568 
0.017625 0.00609375 1.97306 1.7904e+21 1.19062e-05 2.9948 0.827252 0.0756557 
0.016875 0.00628125 1.89907 1.70993e+21 1.1371e-05 2.34717 -1.29015 -0.119389 
0.017625 0.00628125 1.9719 1.72614e+21 1.14789e-05 -1.42301 3.18348 -1.68087 
0.016875 0.00684375 2.01374 1.65373e+21 1.09973e-05 3.58038 -3.17443 -1.0486 
0.015375 0.00778125 2.02748 1.66829e+21 1.10941e-05 0.285596 -0.616908 -0.839959 
0.016125 0.00778125 2.0237 1.61302e+21 1.07266e-05 3.9113 -2.71404 1.03238 
0.017625 0.00759375 2.01496 1.67818e+21 1.11599e-05 0.539754 1.05435 1.00608 
0.016875 0.00778125 2.03242 1.79047e+21 1.19066e-05 1.64259 -1.48344 0.979248 
0.016125 0.00796875 2.07131 1.74266e+21 1.15887e-05 1.22786 -2.49203 3.96694 
0.014625 0.00834375 1.97982 1.61822e+21 1.07611e-05 3.14603 -1.63505 -1.22331 
0.021375 0.00496875 1.94965 1.71516e+21 1.14058e-05 1.21361 0.263911 5.77134 
0.022125 0.00496875 2.1021 1.61494e+21 1.07394e-05 -0.02338 -4.43705 6.52854 
0.021375 0.00515625 2.09064 1.70108e+21 1.13122e-05 3.5909 -3.07342 1.45779 
0.022125 0.00515625 2.02672 1.67474e+21 1.1137e-05 1.0914 -2.96709 -2.64076 
0.021375 0.00571875 2.04554 1.78906e+21 1.18972e-05 -1.83247 -2.18055 -2.06153 
0.022125 0.00571875 1.95577 1.7475e+21 1.16209e-05 -1.9325 2.2799 -0.573052 
0.021375 0.00590625 1.92164 1.69777e+21 1.12902e-05 -1.28381 -2.6131 -0.0977816 
0.022125 0.00590625 2.06507 1.67286e+21 1.11245e-05 3.8812 -1.32566 2.81627 
0.022875 0.00609375 2.09036 1.5861e+21 1.05476e-05 5.19707 -0.787996 -0.26517 
0.023625 0.00609375 1.89974 1.53038e+21 1.0177e-05 3.16809 2.72434 -0.475811 
0.022875 0.00628125 2.07799 1.56398e+21 1.04005e-05 0.10801 -0.942102 -3.80295 
0.023625 0.00628125 2.06611 1.72434e+21 1.14669e-05 0.509843 0.0957068 -1.11118 
0.019875 0.00684375 2.03049 1.61734e+21 1.07553e-05 1.28528 0.0372827 0.7844 
0.019875 0.00703125 1.90106 1.61767e+21 1.07575e-05 2.78327 -1.86691 -2.12 
0.020625 0.00703125 1.95255 1.63377e+21 1.08646e-05 1.04526 -1.66715 1.2908 
0.019125 0.00721875 1.9869 1.7293e+21 1.14999e-05 -0.361785 0.0419474 -0.980225 
0.019125 0.00740625 2.03075 1.71303e+21 1.13916e-05 2.33885 1.78257 -1.02966 
0.021375 0.00684375 1.98638 1.63719e+21 1.08873e-05 0.791038 -1.83475 -3.05901 
0.022125 0.00684375 2.09608 1.69176e+21 1.12502e-05 0.00631371 -3.6893 0.974438 
0.019875 0.00759375 2.04678 1.63198e+21 1.08527e-05 5.09296 1.14446 4.20614 
0.020625 0.00759375 1.99726 1.66626e+21 1.10806e-05 -0.601652 -2.40895 0.489453 
0.022875 0.00871875 2.03969 1.66415e+21 1.10666e-05 -0.013258 0.149207 -0.437066 
0.018375 0.0192187 0 0 0 0 0 0 
0.018375 0.0194062 0 0 0 0 0 0 
0.0264375 0.0172969 2.12429 1.52064e+21 1.01122e-05 -0.420529 -1.40021 -0.461071 
0.0268125 0.0172969 2.06901 1.68553e+21 1.12088e-05 0.610352 -2.90263 2.48475 
0.0264375 0.0173906 1.99408 1.66082e+21 1.10445e-05 2.05142 -3.2244 1.43641 
0.0268125 0.0173906 1.89132 1.67904e+21 1.11656e-05 -0.790131 -2.30726 -0.449911 
0.0256875 0.0186094 1.97781 1.6299e+21 1.08388e-05 -1.11014 2.64657 1.03719 
0.0260625 0.0186094 2.13956 1.61044e+21 1.07094e-05 0.00802998 -2.92624 -2.45256 
0.0256875 0.0187031 1.99925 1.6653e+21 1.10742e-05 2.01448 -3.10781 3.67581 
0.0260625 0.0187031 2.02864 1.59026e+21 1.05752e-05 1.51515 1.86948 -0.946957 
0.0271875 0.0184219 2.06163 1.55802e+21 1.03608e-05 -1.89164 -2.83659 1.8562 
0.0275625 0.0184219 2.05135 1.6686e+21 1.10962e-05 -0.697515 -0.15924 -1.88017 
0.0271875 0.0185156 1.9193 1.74573e+21 1.16091e-05 -2.64985 3.6548 2.47753 
0.0275625 0.0185156 1.92542 1.63815e+21 1.08937e-05 -0.25364 -1.4797 -1.88102 
0.0249375 0.0193594 2.08244 1.66263e+21 1.10565e-05 -1.3099 0.96574 -1.38451 
0.0253125 0.0193594 2.11713 1.7094e+21 1.13675e-05 1.10634 1.88402 1.70365 
0.0249375 0.0194531 1.95266 1.70582e+21 1.13437e-05 0.803468 0.874485 -0.479723 
0.0253125 0.0194531 2.08031 1.71047e+21 1.13746e-05 -2.0098 2.79447 -2.53575 
0.0279375 0.0187969 1.93279 1.54861e+21 1.02983e-05 2.26298 -1.83832 0.281216 
0.0283125 0.0187969 2.00598 1.59196e+21 1.05866e-05 -3.20381 -3.19308 -3.29933 
0.0279375 0.0188906 2.11138 1.67513e+21 1.11396e-05 -3.67969 -1.48165 3.3475 
0.0283125 0.0188906 2.01269 1.57687e+21 1.04862e-05 4.01525 0.0611882 -0.155304 
0.0271875 0.0191719 2.00851 1.5561e+21 1.03481e-05 -0.571966 1.23972 -2.54586 
0.0275625 0.0191719 1.92963 1.5561e+21 1.03481e-05 -5.23656 1.33119 3.1486 
0.0271875 0.0192656 1.88773 1.62138e+21 1.07821e-05 -0.906363 3.97387 -4.83034 
0.0275625 0.0192656 1.98074 1.71067e+21 1.13759e-05 2.88601 4.747 1.87865 
0.0279375 0.0195469 2.05943 1.73469e+21 1.15357e-05 5.94287 -1.66614 4.0457 
0.0283125 0.0195469 1.92558 1.64668e+21 1.09504e-05 -2.49424 -0.151199 -0.300908 
0.0279375 0.0196406 2.00785 1.51205e+21 1.00551e-05 0.268418 0.592632 2.79176 
0.0283125 0.0196406 2.0003 1.70106e+21 1.1312e-05 1.97277 -0.51867 -3.0788 
0.0286875 0.0197344 2.00711 1.65398e+21 1.09989e-05 -0.166301 2.91361 3.90615 
0.0290625 0.0197344 1.97788 1.67921e+21 1.11668e-05 -0.247123 4.2601 3.75557 
0.0286875 0.0198281 1.98119 1.72835e+21 1.14935e-05 -0.0253422 1.09325 2.36081 
0.0290625 0.0198281 2.04703 1.7352e+21 1.15391e-05 -4.98406 1.45594 2.28277 
0.0241875 0.0206719 2.04539 1.64029e+21 1.09079e-05 3.02027 -0.558809 -1.63102 
0.0245625 0.0206719 1.92591 1.63372e+21 1.08642e-05 -1.59735 4.23725 -2.74514 
0.0241875 0.0207656 1.97452 1.66122e+21 1.10471e-05 -1.6449 -2.65717 0.47247 
0.0245625 0.0207656 1.8355 1.6634e+21 1.10616e-05 4.1394 -2.6878 -0.953851 
0.0264375 0.0206719 1.97941 1.65124e+21 1.09807e-05 1.93157 -3.45339 -1.68279 
0.0268125 0.0206719 1.97413 1.67314e+21 1.11264e-05 1.06551 -0.38582 -3.27534 
0.0264375 0.0207656 1.96276 1.65904e+21 1.10326e-05 -1.9895 -0.114474 -4.7184 
0.0268125 0.0207656 1.99798 1.71572e+21 1.14096e-05 4.56889 0.834022 2.40663 
0.0256875 0.0208594 2.08656 1.48013e+21 9.84288e-06 1.92189 -1.75886 3.38694 
0.0260625 0.0208594 1.98233 1.71018e+21 1.13727e-05 0.558745 0.631273 2.62914 
0.0260625 0.0209531 1.98874 1.68957e+21 1.12356e-05 -1.6908 0.0270301 -2.33279 
0.0249375 0.0214219 2.06422 1.6061e+21 1.06806e-05 0.547148 3.09456 1.96432 
0.0253125 0.0214219 1.97479 1.58074e+21 1.0512e-05 2.11444 3.68984 -0.390131 
0.0249375 0.0215156 1.92841 1.72535e+21 1.14736e-05 -1.10423 -0.591354 1.06262 
0.0253125 0.0215156 2.05527 1.6475e+21 1.09559e-05 -1.80373 -1.50507 -0.02568 
0.0286875 0.0210469 2.04611 1.58955e+21 1.05705e-05 -4.54357 1.74621 -3.96362 
0.0290625 0.0210469 1.97901 1.64548e+21 1.09424e-05 2.59025 0.696956 -2.29513 
0.0286875 0.0211406 1.95876 1.73882e+21 1.15632e-05 4.21663 -2.74816 2.97348 
0.0290625 0.0211406 2.026 1.71527e+21 1.14065e-05 -0.0614401 -0.218222 -1.42647 
0.0219375 0.0176719 1.83979 1.66769e+21 1.10902e-05 -0.33623 0.917648 3.52554 
0.0223125 0.0176719 1.97016 1.63695e+21 1.08857e-05 -0.122513 1.086 -2.5113 
0.0219375 0.0177656 2.0118 1.61812e+21 1.07605e-05 -2.65658 0.844667 -1.0944 
0.0223125 0.0177656 2.02261 1.75063e+21 1.16417e-05 0.745352 0.968108 -3.19289 
0.0196875 0.0208594 2.09069 1.51486e+21 1.00738e-05 2.72622 -4.51232 -4.3287 
0.0200625 0.0208594 2.04254 1.69933e+21 1.13006e-05 2.97645 0.957127 0.560368 
0.0196875 0.0209531 1.96358 1.59882e+21 1.06322e-05 -3.69811 -3.11531 5.31498 
0.0200625 0.0209531 1.95806 1.53185e+21 1.01868e-05 -2.51692 -3.09207 -0.448203 
0.0226875 0.0204844 1.98199 1.62878e+21 1.08314e-05 0.122921 3.6582 -3.38311 
0.0230625 0.0204844 2.01798 1.72602e+21 1.1478e-05 -3.2852 -1.58481 2.20141 
0.0226875 0.0205781 2.03208 1.69616e+21 1.12794e-05 1.54931 -1.93841 -0.79555 
0.0230625 0.0205781 1.96096 1.66536e+21 1.10746e-05 1.87901 1.37965 0.639566 
0.0234375 0.0210469 1.9899 1.66268e+21 1.10568e-05 -1.15089 -0.916956 1.14067 
0.0238125 0.0210469 2.01562 1.57019e+21 1.04418e-05 -0.969186 0.70141 -1.21788 
0.0234375 0.0211406 2.03065 1.57822e+21 1.04952e-05 -2.42716 2.00386 1.97523 
0.0238125 0.0211406 2.04002 1.56109e+21 1.03812e-05 -4.6104 -0.640209 2.40404 
0.0226875 0.0214219 2.05915 1.63146e+21 1.08492e-05 0.857027 -3.24069 -0.480508 
0.0230625 0.0214219 1.97578 1.72656e+21 1.14816e-05 -1.55751 0.100468 -2.91011 
0.02775 0.0016875 2.05914 1.73538e+21 1.15403e-05 -0.153171 -2.77276 -1.74986 
0.02925 0.0016875 2.07191 1.61298e+21 1.07263e-05 1.97906 -0.897769 2.0549 
0.02775 0.0020625 2.06114 1.73401e+21 1.15311e-05 -0.579222 2.07244 -0.740399 
0.00675 0.0001875 1.72453 4.4818e+21 2.9804e-05 51.3489 -0.0295477 -2.92555 
0.00825 0.0001875 1.97345 3.30476e+21 2.19767e-05 22.0347 2.97249 3.39552 
0.00675 0.0005625 1.8835 3.67196e+21 2.44185e-05 40.6188 3.06126 1.30348 
0.00825 0.0005625 2.03156 2.90739e+21 1.93341e-05 21.8265 5.69754 -2.38983 
0.01125 0.0039375 0 0 0 0 0 0 
0.01125 0.0043125 0 0 0 0 0 0 
0.01125 0.0054375 0 0 0 0 0 0 
0.01125 0.0058125 0 0 0 0 0 0 
0.01125 0.0084375 0 0 0 0 0 0 
0.01125 0.0088125 0 0 0 0 0 0 
0.01275 0.0024375 1.93289 1.68459e+21 1.12025e-05 -0.626997 0.0336379 0.0267646 
0.01275 0.0028125 1.96076 1.67313e+21 1.11263e-05 -0.26342 0.302635 -1.11926 
0.02175 0.0016875 1.99025 1.69346e+21 1.12615e-05 0.421381 -1.82634 3.60439 
0.02325 0.0016875 1.97917 1.68005e+21 1.11723e-05 3.92554 -4.35716 1.52104 
0.024375 0.00496875 2.02466 1.6605e+21 1.10423e-05 0.229355 1.23698 -3.14948 
0.025125 0.00496875 2.0433 1.65822e+21 1.10272e-05 -0.420716 -5.16078 -3.28755 
0.024375 0.00515625 1.97474 1.67255e+21 1.11224e-05 3.07226 0.610859 0.443514 
0.025125 0.00515625 2.03978 1.7362e+21 1.15457e-05 3.40489 0.22884 -2.44745 
0.025875 0.00496875 1.97681 1.52155e+21 1.01183e-05 0.643433 0.365141 0.685317 
0.026625 0.00496875 1.93223 1.62861e+21 1.08302e-05 0.217518 4.0182 -1.17681 
0.025875 0.00515625 2.06567 1.63743e+21 1.08889e-05 2.80764 2.29348 4.69616 
0.026625 0.00515625 2.00072 1.67035e+21 1.11078e-05 2.5986 0.364904 1.83743 
0.027375 0.00459375 2.11921 1.59649e+21 1.06166e-05 5.27891 -2.29519 -2.77361 
0.028125 0.00459375 2.16094 1.75663e+21 1.16816e-05 -1.99874 -1.6111 3.38483 
0.027375 0.00478125 1.96176 1.60489e+21 1.06725e-05 1.24179 -0.823961 2.98247 
0.028125 0.00478125 2.01526 1.69721e+21 1.12864e-05 -1.93686 3.52966 0.991234 
0.025875 0.00534375 1.95125 1.67528e+21 1.11406e-05 -0.202787 -3.38825 1.14083 
0.026625 0.00534375 2.05969 1.73458e+21 1.1535e-05 0.590719 0.890908 -0.482123 
0.025875 0.00553125 2.05403 1.70852e+21 1.13617e-05 2.18724 -2.90629 -1.86701 
0.026625 0.00553125 1.93183 1.66555e+21 1.10759e-05 2.10727 2.94569 -2.89655 
0.025875 0.00571875 1.99681 1.6723e+21 1.11208e-05 4.47823 1.84454 -3.17331 
0.026625 0.00571875 1.94563 1.70396e+21 1.13313e-05 2.54616 -1.07012 1.1759 
0.025875 0.00590625 2.07052 1.66136e+21 1.10481e-05 1.98979 1.30705 -1.61664 
0.026625 0.00590625 1.96157 1.70735e+21 1.13539e-05 6.18574 -3.89645 -1.2369 
0.027375 0.00534375 2.06785 1.62233e+21 1.07885e-05 1.26323 3.41696 1.4186 
0.028125 0.00534375 2.03983 1.65622e+21 1.10139e-05 -2.11931 2.19364 -4.61044 
0.027375 0.00553125 1.99404 1.56325e+21 1.03956e-05 0.468994 -1.62174 1.95458 
0.028125 0.00553125 2.01441 1.59394e+21 1.05997e-05 2.45459 -0.0160682 -1.01575 
0.028875 0.00534375 1.98354 1.72188e+21 1.14505e-05 0.157432 -0.503321 2.68405 
0.029625 0.00534375 2.02439 1.66469e+21 1.10702e-05 -0.255903 0.831336 -3.41285 
0.028875 0.00553125 1.97239 1.61235e+21 1.07222e-05 2.12662 -0.129665 -5.33003 
0.029625 0.00553125 2.00719 1.63077e+21 1.08446e-05 -3.80688 0.908918 3.68249 
0.028875 0.00571875 1.98852 1.65053e+21 1.0976e-05 2.16989 -4.40742 -2.47716 
0.029625 0.00571875 2.02052 1.57532e+21 1.04759e-05 5.1432 3.39899 0.957409 
0.028875 0.00590625 2.0045 1.6422e+21 1.09206e-05 3.8925 3.65958 -3.14567 
0.029625 0.00590625 1.97914 1.7246e+21 1.14686e-05 4.422 -3.00496 1.82657 
0.025875 0.00646875 2.02508 1.72685e+21 1.14835e-05 -2.05185 -1.57372 -1.15925 
0.026625 0.00646875 1.9559 1.68836e+21 1.12276e-05 2.75403 0.646384 0.232681 
0.025875 0.00665625 1.98526 1.69691e+21 1.12844e-05 2.1781 -1.6596 -0.935303 
0.026625 0.00665625 1.98245 1.6408e+21 1.09113e-05 3.20691 2.15631 0.507011 
0.027375 0.00609375 2.0312 1.60096e+21 1.06464e-05 -1.02175 2.72967 0.605913 
0.028125 0.00609375 2.00995 1.68082e+21 1.11775e-05 1.53369 -1.95775 2.80421 
0.028125 0.00628125 1.8937 1.64326e+21 1.09277e-05 3.85788 -3.20706 2.25122 
0.029625 0.00609375 2.02795 1.5731e+21 1.04611e-05 4.26961 1.88931 1.08751 
0.028875 0.00628125 2.02976 1.64326e+21 1.09277e-05 2.94642 -0.943188 3.48221 
0.027375 0.00646875 1.98814 1.57988e+21 1.05062e-05 -0.118287 3.68389 1.92403 
0.028125 0.00646875 2.07337 1.60438e+21 1.06691e-05 1.38294 -2.1976 3.32881 
0.028125 0.00665625 2.044 1.6238e+21 1.07982e-05 0.624536 0.899975 -0.561256 
0.028875 0.00646875 2.00378 1.63062e+21 1.08436e-05 -0.772557 0.624023 -3.58962 
0.029625 0.00646875 1.92335 1.69361e+21 1.12625e-05 1.56922 0.734885 0.552987 
0.029625 0.00665625 1.95649 1.67651e+21 1.11488e-05 -0.366541 -1.10272 -2.624 
0.025125 0.00759375 2.12376 1.59621e+21 1.06148e-05 0.403037 -4.17553 -1.42521 
0.024375 0.00778125 1.9718 1.64793e+21 1.09587e-05 4.15553 0.653499 1.38892 
0.027375 0.00759375 2.03919 1.67073e+21 1.11104e-05 0.918825 1.86633 1.2985 
0.028125 0.00759375 2.02784 1.68117e+21 1.11797e-05 1.38023 1.65436 -1.94862 
0.006375 0.00121875 1.85472 4.10455e+21 2.72952e-05 42.4276 11.3449 8.1187 
0.007125 0.00121875 1.80236 3.08305e+21 2.05023e-05 44.3652 24.7458 -0.0583518 
0.006375 0.00140625 1.98115 3.73433e+21 2.48333e-05 34.627 0.859487 -1.61147 
0.007125 0.00140625 1.82015 2.77661e+21 1.84644e-05 24.3327 14.4731 -4.30867 
0.006375 0.00534375 1.97604 2.01733e+21 1.34152e-05 -3.46686 -0.726486 -1.13792 
0.007125 0.00534375 2.01158 2.1264e+21 1.41406e-05 2.04611 5.75985 -2.52945 
0.006375 0.00553125 2.04989 2.04869e+21 1.36238e-05 1.58814 -2.09059 -1.13134 
0.007875 0.00534375 2.08577 2.16029e+21 1.43659e-05 1.65251 5.93721 3.67525 
0.007875 0.00553125 1.91041 2.10957e+21 1.40286e-05 -0.876567 7.44522 -0.419065 
0.008625 0.00553125 2.10666 2.05841e+21 1.36884e-05 -1.51407 4.31663 -1.0275 
0.010875 0.00946875 1.95106 1.71679e+21 1.14166e-05 5.86343 -8.44949 -4.07733 
0.011625 0.00946875 1.95248 1.85358e+21 1.23263e-05 -1.18665 -5.78799 -1.40236 
0.013875 0.00496875 2.02955 1.71516e+21 1.14058e-05 -2.06869 -0.773881 0.00981821 
0.014625 0.00496875 1.97357 1.7425e+21 1.15876e-05 2.43157 2.74819 2.30693 
0.013875 0.00515625 1.89706 1.71425e+21 1.13998e-05 1.63064 -0.317562 -2.54087 
0.014625 0.00515625 1.91831 1.73181e+21 1.15165e-05 -2.54697 -4.6293 -1.62019 
0.013875 0.00571875 2.11491 1.71188e+21 1.1384e-05 -0.165819 0.132865 0.720685 
0.014625 0.00571875 1.99614 1.66834e+21 1.10944e-05 0.0958876 -1.24815 1.59509 
0.013875 0.00590625 2.09134 1.72652e+21 1.14813e-05 2.01671 -0.897196 1.16083 
0.014625 0.00590625 1.9419 1.67286e+21 1.11245e-05 -1.36838 -1.11028 -2.86466 
0.016875 0.00571875 1.97305 1.61095e+21 1.07128e-05 0.55391 1.65046 0.134147 
0.017625 0.00571875 2.03006 1.54762e+21 1.02916e-05 -1.34573 -0.124306 0.142495 
0.016875 0.00590625 2.05539 1.60963e+21 1.0704e-05 4.72009 4.25597 6.02041 
0.017625 0.00590625 1.97568 1.68244e+21 1.11882e-05 1.78407 -0.834934 0.803587 
0.013875 0.00609375 1.93928 1.63625e+21 1.0881e-05 0.115815 -0.608872 -0.399597 
0.014625 0.00609375 1.97795 1.60467e+21 1.06711e-05 -1.81624 -4.20094 2.22119 
0.013875 0.00628125 1.96848 1.61984e+21 1.07719e-05 0.628588 -2.02731 -1.68559 
0.015375 0.00609375 2.00956 1.56939e+21 1.04364e-05 -0.477547 0.198798 -0.311956 
0.016125 0.00609375 2.02853 1.70125e+21 1.13133e-05 2.60293 -0.0703742 4.51786 
0.015375 0.00628125 1.88829 1.63966e+21 1.09037e-05 -0.67969 -2.48823 3.94803 
0.016125 0.00628125 2.027 1.58921e+21 1.05682e-05 0.929761 2.40851 -1.86334 
0.015375 0.00646875 1.89424 1.70935e+21 1.13672e-05 0.28995 -2.41412 6.47701 
0.016125 0.00646875 2.03905 1.69186e+21 1.12509e-05 2.73268 -2.96893 1.0666 
0.016875 0.00646875 1.96568 1.66386e+21 1.10647e-05 0.110215 -1.89782 2.8187 
0.013875 0.00721875 1.92889 1.60858e+21 1.06971e-05 0.0344136 -1.92731 0.639762 
0.014625 0.00721875 1.9648 1.65405e+21 1.09994e-05 -0.895668 -3.63032 1.83469 
0.016125 0.00703125 1.96682 1.65309e+21 1.0993e-05 1.29652 -2.23373 -0.95708 
0.013875 0.00778125 2.03165 1.71047e+21 1.13746e-05 -0.474128 -0.696989 0.512769 