ITEM: TIMESTEP
500000
ITEM: NUMBER OF CELLS
36814
ITEM: BOX BOUNDS oo ao pp
0 0.35
0 0.03
-0.1 0.1
ITEM: CELLS xc yc f_out[1] f_out[2] f_out[3] f_out[4] f_out[5] f_out[6] 
0.00875 0.01575 0 0 0 0 0 0 
0.00875 0.01875 0 0 0 0 0 0 
0.00875 0.02175 0 0 0 0 0 0 
0.00875 0.02475 0 0 0 0 0 0 
0.00875 0.02775 0 0 0 0 0 0 
0.02625 0.02475 0 0 0 0 0 0 
0.02625 0.02775 0 0 0 0 0 0 
0.00875 0.01425 0 0 0 0 0 0 
0.00875 0.01725 0 0 0 0 0 0 
0.00875 0.02025 0 0 0 0 0 0 
0.00875 0.02325 0 0 0 0 0 0 
0.00875 0.02625 0 0 0 0 0 0 
0.00875 0.02925 0 0 0 0 0 0 
0.02625 0.02325 0 0 0 0 0 0 
0.02625 0.02625 0 0 0 0 0 0 
0.02625 0.02925 0.212907 4.14567e+15 2.75687e-11 -91.9664 10.4035 -5.27366 
0.04375 0.02325 0 0 0 0 0 0 
0.04375 0.02625 0 0 0 0 0 0 
0.04375 0.02925 0.244757 8.29134e+15 5.51374e-11 -88.3274 23.7984 -4.02951 
0.004375 0.013125 0 0 0 0 0 0 
0.013125 0.013125 0 0 0 0 0 0 
0.021875 0.022125 0 0 0 0 0 0 
0.030625 0.022125 0 0 0 0 0 0 
0.0021875 0.0001875 1.82372 1.23311e+22 8.20016e-05 28.3217 0.951293 0.968614 
0.0021875 0.0031875 0 0 0 0 0 0 
0.0021875 0.0035625 0 0 0 0 0 0 
0.0021875 0.0039375 0 0 0 0 0 0 
0.0021875 0.0043125 0 0 0 0 0 0 
0.0021875 0.0061875 0 0 0 0 0 0 
0.0021875 0.0065625 0 0 0 0 0 0 
0.0021875 0.0069375 0 0 0 0 0 0 
0.0021875 0.0073125 0 0 0 0 0 0 
0.0021875 0.0091875 0 0 0 0 0 0 
0.0021875 0.0095625 0 0 0 0 0 0 
0.0021875 0.0099375 0 0 0 0 0 0 
0.0021875 0.0103125 0 0 0 0 0 0 
0.0021875 0.0121875 0 0 0 0 0 0 
0.0021875 0.0125625 0 0 0 0 0 0 
0.0021875 0.0020625 0 0 0 0 0 0 
0.0021875 0.0024375 0 0 0 0 0 0 
0.0021875 0.0028125 0 0 0 0 0 0 
0.0021875 0.0046875 0 0 0 0 0 0 
0.0021875 0.0050625 0 0 0 0 0 0 
0.0021875 0.0054375 0 0 0 0 0 0 
0.0021875 0.0058125 0 0 0 0 0 0 
0.0021875 0.0076875 0 0 0 0 0 0 
0.0021875 0.0080625 0 0 0 0 0 0 
0.0021875 0.0084375 0 0 0 0 0 0 
0.0021875 0.0088125 0 0 0 0 0 0 
0.0021875 0.0106875 0 0 0 0 0 0 
0.0021875 0.0110625 0 0 0 0 0 0 
0.0021875 0.0114375 0 0 0 0 0 0 
0.0021875 0.0118125 0 0 0 0 0 0 
0.0109375 0.0001875 2.02303 5.28159e+21 3.51225e-05 8.28169 6.90355 5.74887 
0.0109375 0.0001875 1.79058 2.87602e+21 1.91256e-05 5.34078 -4.86785 -11.1749 
0.0153125 0.0001875 1.9582 2.52481e+21 1.679e-05 -1.71619 -0.032265 4.12296 
0.0109375 0.0005625 2.20393 5.28159e+21 3.51225e-05 17.2275 2.49513 -0.593091 
0.0109375 0.0005625 1.92504 2.57422e+21 1.71186e-05 1.17628 11.4263 -0.753886 
0.00546875 9.375e-05 1.77211 9.64396e+21 6.41323e-05 43.4892 -5.98475 1.46343 
0.00765625 9.375e-05 1.93968 5.33936e+21 3.55067e-05 48.2692 3.23964 0.185368 
0.00546875 0.00028125 1.76693 9.96129e+21 6.62426e-05 48.7384 3.74157 7.24245 
0.00765625 0.00028125 1.69237 5.62909e+21 3.74335e-05 46.8354 3.54818 3.44666 
0.00109375 0.00046875 0 0 0 0 0 0 
0.00328125 0.00046875 1.94823 1.31834e+22 8.76699e-05 31.0751 -2.09098 0.883019 
0.00109375 0.00065625 0 0 0 0 0 0 
0.00765625 0.00046875 1.88903 5.38075e+21 3.5782e-05 43.9063 5.5581 3.14143 
0.00765625 0.00065625 1.84949 5.07919e+21 3.37766e-05 50.225 9.21359 -0.204052 
0.00109375 0.00084375 0 0 0 0 0 0 
0.00109375 0.00103125 0 0 0 0 0 0 
0.00109375 0.00121875 0 0 0 0 0 0 
0.00109375 0.00140625 0 0 0 0 0 0 
0.0142187 0.00121875 2.05007 2.6649e+21 1.77216e-05 -1.88418 -0.964394 0.710718 
0.0142187 0.00140625 1.99101 2.36201e+21 1.57074e-05 0.286598 -0.349249 5.52269 
0.0164062 0.00140625 1.98607 2.61587e+21 1.73956e-05 1.98757 -2.33611 -1.96913 
0.00546875 0.00309375 2.13187 3.3828e+21 2.24956e-05 -4.06999 5.41827 -0.611158 
0.00546875 0.00328125 2.01382 3.16515e+21 2.10482e-05 4.52231 4.33951 8.71781 
0.00546875 0.00346875 2.02343 3.59287e+21 2.38926e-05 -3.21906 7.44998 2.86229 
0.00546875 0.00365625 2.00006 3.56157e+21 2.36844e-05 2.5177 -4.28456 -0.530562 
0.00546875 0.00384375 1.88674 3.28391e+21 2.1838e-05 -2.77569 6.56243 1.68654 
0.00546875 0.00403125 2.0411 3.66625e+21 2.43806e-05 3.08758 4.14671 2.44762 
0.00546875 0.00421875 1.92116 3.13404e+21 2.08413e-05 -1.68131 4.43818 3.92606 
0.00546875 0.00440625 1.8166 3.61713e+21 2.40539e-05 1.03141 4.14023 3.86232 
0.0120312 0.00421875 1.82435 2.61801e+21 1.74098e-05 -0.489184 -2.46678 -3.08798 
0.0120312 0.00440625 2.05064 2.49754e+21 1.66086e-05 2.32057 4.63171 -2.05163 
0.00546875 0.00609375 1.93922 3.31029e+21 2.20135e-05 -1.81215 1.22792 -8.02666 
0.00546875 0.00628125 1.8843 3.27507e+21 2.17792e-05 -1.51842 8.93328 -4.14678 
0.00546875 0.00646875 1.8633 3.08752e+21 2.0532e-05 -4.38417 7.21659 5.33577 
0.00546875 0.00665625 2.01963 3.02455e+21 2.01133e-05 0.0166026 2.97055 0.646031 
0.0120312 0.00609375 1.97156 2.37292e+21 1.57799e-05 -1.22086 1.84623 -0.159896 
0.0120312 0.00628125 1.96904 2.50877e+21 1.66833e-05 -3.14147 0.988578 -1.35822 
0.0120312 0.00665625 2.03828 2.49045e+21 1.65615e-05 3.03573 1.3476 -3.00388 
0.00546875 0.00684375 1.98314 3.01173e+21 2.0028e-05 -1.63785 11.7947 -1.80456 
0.00546875 0.00703125 2.00758 3.18706e+21 2.11939e-05 6.58874 3.71968 3.16807 
0.00546875 0.00721875 1.91588 3.13195e+21 2.08274e-05 -1.12562 2.28934 2.16518 
0.00546875 0.00740625 1.90944 3.0149e+21 2.00491e-05 -0.942636 6.24369 2.52624 
0.0120312 0.00703125 2.06042 2.56499e+21 1.70572e-05 -2.46245 -0.654603 -1.3624 
0.0120312 0.00721875 2.00637 2.562e+21 1.70373e-05 -1.1934 -2.28061 4.3768 
0.0120312 0.00740625 2.0816 2.46478e+21 1.63908e-05 -0.44337 -0.879179 3.56347 
0.00546875 0.00909375 2.06719 2.85077e+21 1.89576e-05 -2.25266 -0.294075 -1.24395 
0.00546875 0.00928125 1.95812 2.89647e+21 1.92615e-05 -1.56618 1.13365 -4.52349 
0.00546875 0.00946875 2.01904 2.72099e+21 1.80946e-05 1.88183 2.93823 1.25819 
0.0120312 0.00909375 2.01275 2.56525e+21 1.70589e-05 -2.05163 -1.91089 -3.21433 
0.00546875 0.00984375 2.07241 2.87704e+21 1.91323e-05 0.0334506 5.1279 -3.96237 
0.00546875 0.0100312 1.97297 2.78742e+21 1.85364e-05 2.93971 2.72095 5.54386 
0.00546875 0.0102187 1.93033 2.97863e+21 1.98079e-05 -2.86568 0.781546 0.808748 
0.00546875 0.0104062 2.04592 2.79062e+21 1.85576e-05 0.342737 0.754715 1.60841 
0.00546875 0.0120938 1.9285 2.88015e+21 1.9153e-05 -0.925868 1.62237 -4.81145 
0.00546875 0.0122813 2.06798 2.80366e+21 1.86443e-05 0.138932 -1.36746 0.942368 
0.00546875 0.0124688 1.9674 2.92167e+21 1.94291e-05 -1.55355 3.1994 -2.87397 
0.00546875 0.0126563 2.16585 2.80302e+21 1.86401e-05 1.58436 -3.45936 -1.09877 
0.0185937 0.0216562 2.17708 2.4993e+21 1.66203e-05 -0.0816188 2.79076 1.82065 
0.00546875 0.00178125 2.00317 3.00497e+21 1.9983e-05 6.68837 15.987 -6.71395 
0.00546875 0.00196875 2.04126 2.86081e+21 1.90244e-05 -8.3208 11.2685 7.42993 
0.00546875 0.00215625 1.92242 2.66762e+21 1.77396e-05 -2.52374 11.211 -1.38435 
0.0164062 0.00159375 1.91368 2.5589e+21 1.70167e-05 -3.59706 0.913636 -0.0431982 
0.0164062 0.00178125 1.94578 2.42461e+21 1.61236e-05 2.03176 -2.31737 0.82537 
0.00546875 0.00234375 1.76714 3.73244e+21 2.48207e-05 3.745 2.37357 2.47118 
0.00546875 0.00253125 1.91626 3.39284e+21 2.25624e-05 1.09747 6.11612 1.07422 
0.00546875 0.00271875 1.974 3.46739e+21 2.30581e-05 -2.43397 5.87257 -6.88505 
0.00546875 0.00290625 1.75736 3.35364e+21 2.23017e-05 4.86392 -1.90915 3.20803 
0.00546875 0.00459375 1.90022 3.22602e+21 2.1453e-05 1.14175 13.4349 -1.53327 
0.00546875 0.00478125 1.98686 3.36685e+21 2.23895e-05 0.205824 1.11917 -10.0077 
0.00546875 0.00496875 2.10324 3.13529e+21 2.08497e-05 0.435056 5.7246 -2.80017 
0.00546875 0.00515625 1.89231 3.19171e+21 2.12249e-05 2.34772 8.65411 2.71492 
0.0120312 0.00459375 2.05403 2.32604e+21 1.54681e-05 2.3601 -1.5699 -1.98989 
0.0120312 0.00478125 2.03707 2.48963e+21 1.6556e-05 -0.0374995 1.54236 -0.644202 
0.0120312 0.00496875 1.92804 2.43588e+21 1.61986e-05 2.80824 1.47457 -0.582456 
0.0120312 0.00515625 2.10975 2.62231e+21 1.74384e-05 -0.535936 4.83081 -2.70724 
0.00546875 0.00534375 2.03723 3.72257e+21 2.47551e-05 -1.79969 3.74491 0.323749 
0.00546875 0.00553125 1.90151 3.09809e+21 2.06023e-05 -1.9157 5.14003 -2.04054 
0.00546875 0.00571875 2.12666 3.28988e+21 2.18777e-05 2.42376 8.78465 2.81967 
0.00546875 0.00590625 2.02739 3.20573e+21 2.13181e-05 -2.61714 -1.87573 3.84945 
0.0120312 0.00534375 1.99759 2.35464e+21 1.56583e-05 -1.45702 -4.53265 -3.12442 
0.0120312 0.00553125 1.87406 2.47342e+21 1.64482e-05 3.85906 -0.386571 -1.66575 
0.0120312 0.00571875 2.02751 2.47614e+21 1.64663e-05 -0.429874 0.27171 -3.67969 
0.0120312 0.00590625 2.06626 2.52941e+21 1.68206e-05 0.00364447 0.910951 -2.13317 
0.00546875 0.00759375 2.08744 3.08775e+21 2.05335e-05 -2.535 3.33759 -6.81648 
0.00546875 0.00778125 1.98371 2.99794e+21 1.99363e-05 1.20563 3.43738 -0.221292 
0.00546875 0.00796875 2.01127 2.85221e+21 1.89672e-05 3.6561 -1.56712 2.38103 
0.00546875 0.00815625 1.93234 3.10988e+21 2.06807e-05 -0.124041 4.78297 -3.81407 
0.0120312 0.00759375 2.03174 2.40129e+21 1.59686e-05 -0.244252 -3.04413 -1.24242 
0.0120312 0.00778125 1.95392 2.34086e+21 1.55667e-05 0.0772467 -0.27111 1.63666 
0.0120312 0.00796875 1.93129 2.4136e+21 1.60505e-05 -0.288044 -1.30133 1.81833 
0.00546875 0.00834375 1.96187 3.03042e+21 2.01523e-05 1.72537 4.85959 -1.15262 
0.00546875 0.00853125 2.09733 3.13237e+21 2.08303e-05 2.00122 5.99 -1.28925 
0.00546875 0.00871875 2.02783 2.76721e+21 1.8402e-05 -3.83992 1.97701 0.478912 
0.00546875 0.00890625 2.04517 3.00048e+21 1.99532e-05 -1.09928 2.709 3.60872 
0.0120312 0.00853125 2.00495 2.43473e+21 1.61909e-05 0.943944 -2.89227 -1.70605 
0.0120312 0.00890625 1.96246 2.53853e+21 1.68812e-05 -0.30578 -1.59523 0.46663 
0.00546875 0.0105937 2.03019 2.85434e+21 1.89814e-05 3.5643 7.49717 0.693434 
0.00546875 0.0107812 2.05578 2.70837e+21 1.80107e-05 -0.927396 0.552627 2.3064 
0.00546875 0.0109687 1.90338 2.8478e+21 1.89379e-05 1.37154 2.38471 -3.80124 
0.00546875 0.0111562 2.03972 2.74981e+21 1.82862e-05 -3.40166 -1.30423 -3.76913 
0.00546875 0.0113437 2.04119 3.11987e+21 2.07472e-05 1.71487 1.22217 2.9141 
0.00546875 0.0115312 1.98785 2.94444e+21 1.95805e-05 1.12758 4.02403 -0.30839 
0.00546875 0.0117188 2.03213 2.70304e+21 1.79752e-05 0.527011 1.81662 1.5576 
0.00546875 0.0119063 2.02585 2.79802e+21 1.86068e-05 1.05613 0.798918 4.25923 
0.0185937 0.00159375 1.95651 2.61246e+21 1.73729e-05 1.29625 -1.4378 -2.15433 
0.0185937 0.00178125 1.97366 2.47689e+21 1.64713e-05 4.25197 3.25996 1.6202 
0.0251562 0.00159375 2.00804 2.70742e+21 1.80043e-05 0.542955 2.64266 -1.07191 
0.0360937 0.00159375 2.02527 2.3276e+21 1.54785e-05 2.36646 -0.494536 3.14453 
0.0382812 0.00159375 1.96419 2.55647e+21 1.70005e-05 -0.230261 -1.74274 1.22207 
0.0382812 0.00178125 1.9359 2.46164e+21 1.63699e-05 -1.76622 2.38002 -1.67287 
0.0284375 0.0001875 1.92966 2.52481e+21 1.679e-05 -2.19404 -3.52637 3.24113 
0.0328125 0.0001875 2.14282 2.54034e+21 1.68932e-05 0.600854 -0.506226 0.75815 
0.00984375 0.00309375 1.97756 3.52809e+21 2.34618e-05 -0.304381 15.0744 0.333179 
0.0120312 0.00309375 1.94778 2.50482e+21 1.6657e-05 -2.04355 -1.51231 -2.81843 
0.0120312 0.00328125 1.99004 2.61733e+21 1.74053e-05 3.70061 5.2073 -2.37785 
0.0120312 0.00346875 1.8691 2.44131e+21 1.62347e-05 2.17167 2.82965 -0.518456 
0.0120312 0.00365625 1.9889 2.62202e+21 1.74364e-05 -1.41519 3.6161 2.30801 
0.0120312 0.00384375 1.93358 2.61362e+21 1.73806e-05 2.53891 3.30338 -1.71367 
0.0120312 0.00403125 2.01384 2.64564e+21 1.75935e-05 -4.95708 -1.67341 -4.05231 
0.0185937 0.00121875 2.01318 2.51208e+21 1.67053e-05 1.31588 -0.876666 -0.458445 
0.0207812 0.00121875 2.05089 2.55984e+21 1.70229e-05 0.624103 3.73283 -1.24875 
0.0185937 0.00140625 1.96647 2.4779e+21 1.64781e-05 0.464249 -0.355909 0.124521 
0.0207812 0.00140625 2.03028 2.5055e+21 1.66616e-05 2.41401 -1.12861 6.17077 
0.00984375 0.00196875 2.11273 4.60999e+21 3.06564e-05 3.47278 18.6281 0.962574 
0.0120312 0.00196875 1.91168 2.52603e+21 1.67981e-05 5.80648 0.121139 2.01282 
0.00984375 0.00215625 1.9651 4.10313e+21 2.72858e-05 1.5036 13.8933 0.270082 
0.0120312 0.00215625 2.13409 2.5472e+21 1.69389e-05 2.30186 -1.7106 0.437276 
0.0120312 0.00271875 2.09171 2.73277e+21 1.81729e-05 4.24794 0.924379 0.913643 
0.00984375 0.00290625 1.91695 3.74448e+21 2.49008e-05 1.99419 12.0645 -0.8952 
0.0120312 0.00290625 2.07159 2.35717e+21 1.56752e-05 -3.61287 1.58843 0.174842 
0.0273437 0.00159375 2.03187 2.5589e+21 1.70167e-05 2.12883 0.659399 -1.86367 
0.0339062 0.00159375 2.02547 2.58325e+21 1.71786e-05 -0.04083 -0.483262 0.72918 
0.0448437 0.00159375 1.89108 2.41282e+21 1.60452e-05 1.50252 -1.53122 -1.76461 
0.0448437 0.00178125 1.97737 2.466e+21 1.63989e-05 -0.538401 3.15664 0.0642235 
0.0470312 0.00178125 1.95956 2.62938e+21 1.74854e-05 2.21752 1.35845 -1.50675 
0.00273437 0.000796875 1.70273 1.28349e+22 8.53523e-05 34.5796 -10.3837 12.4693 
0.00382812 0.000796875 1.91733 1.47837e+22 9.83114e-05 26.2316 -2.41024 3.96674 
0.00273437 0.000890625 1.62889 1.3743e+22 9.1391e-05 31.9107 -1.2775 3.40353 
0.00382812 0.000890625 1.93745 1.35412e+22 9.00489e-05 32.3146 -2.45404 -2.95037 
0.00492187 0.000796875 1.85835 1.10245e+22 7.33126e-05 36.9312 -0.456873 -2.36705 
0.00601562 0.000796875 1.77615 7.83009e+21 5.20701e-05 44.2968 3.1978 -3.66739 
0.00492187 0.000890625 1.93897 1.01603e+22 6.75657e-05 36.6761 0.454689 -0.860005 
0.00601562 0.000890625 1.93149 9.13203e+21 6.0728e-05 47.0558 1.47709 1.38835 
0.00492187 0.000984375 1.93651 1.0864e+22 7.22455e-05 36.6768 -0.240384 1.82825 
0.00601562 0.000984375 1.90308 8.30961e+21 5.52589e-05 42.5086 3.42271 1.90988 
0.00492187 0.00107813 1.9313 1.10278e+22 7.33351e-05 32.3869 -5.49666 1.19938 
0.00601562 0.00107813 1.81387 8.27808e+21 5.50492e-05 40.0714 5.37602 0.21533 
0.00273437 0.00117188 2.06012 1.4737e+22 9.80012e-05 21.5131 6.9607 -2.83634 
0.00382812 0.00117188 1.99993 1.40264e+22 9.32754e-05 25.4757 -2.4318 -0.930636 
0.00273437 0.00126563 2.17876 1.37779e+22 9.16228e-05 22.6587 -0.595417 -11.066 
0.00273437 0.00135937 1.94787 1.48012e+22 9.84277e-05 27.5314 4.88494 1.15089 
0.00273437 0.00145312 1.79473 1.62693e+22 0.000108191 23.2033 -10.6176 -4.96845 
0.00601562 0.00117188 1.80837 7.66881e+21 5.09976e-05 39.5771 1.18163 3.21591 
0.00492187 0.00126563 1.90744 1.06941e+22 7.11154e-05 27.4807 -1.67824 -0.701618 
0.00601562 0.00126563 1.83491 7.87337e+21 5.23579e-05 39.3878 4.93642 0.71807 
0.00492187 0.00135937 2.03046 1.09613e+22 7.28928e-05 23.5443 -1.56746 -3.08024 
0.00601562 0.00135937 1.9248 8.26666e+21 5.49733e-05 30.8781 4.02824 -0.972718 
0.00601562 0.00145312 1.97524 7.82946e+21 5.20659e-05 27.4753 3.35642 -5.69149 
0.00710937 0.00323438 1.89468 3.17206e+21 2.10942e-05 0.150453 7.80902 -0.0579856 
0.00820312 0.00323438 1.93401 3.35922e+21 2.23388e-05 -2.47161 15.0616 -2.8972 
0.00710937 0.00332813 1.96696 3.45114e+21 2.29501e-05 -1.49177 12.3738 -0.72224 
0.00710937 0.00342187 1.90587 3.28855e+21 2.18689e-05 0.274851 11.0783 -6.42169 
0.00820312 0.00342187 1.9803 3.52896e+21 2.34676e-05 -4.37142 13.7232 -3.71178 
0.00710937 0.00351562 1.96787 3.30682e+21 2.19903e-05 -0.483668 10.8259 1.51293 
0.00820312 0.00351562 1.93988 3.36863e+21 2.24014e-05 -3.10461 10.5478 0.250496 
0.00820312 0.00360937 1.94293 3.42304e+21 2.27632e-05 -1.88505 12.8268 -0.272209 
0.00710937 0.00370312 1.8403 3.18968e+21 2.12114e-05 0.104711 8.42194 1.69856 
0.00820312 0.00370312 1.94624 3.54176e+21 2.35527e-05 -1.97417 10.429 -0.211978 
0.00710937 0.00379687 1.98838 3.25809e+21 2.16663e-05 -3.33778 11.3234 3.53429 
0.00820312 0.00379687 1.99534 3.39299e+21 2.25634e-05 -2.07721 14.3371 -1.38547 
0.00710937 0.00389062 1.99906 3.37107e+21 2.24176e-05 -4.0373 9.94305 0.612601 
0.00820312 0.00389062 2.02387 3.24341e+21 2.15687e-05 1.92935 9.84824 1.28357 
0.00710937 0.00398438 1.92809 3.43978e+21 2.28746e-05 -2.59545 9.26079 -0.0419785 
0.00820312 0.00398438 1.98652 3.36577e+21 2.23824e-05 -2.30884 11.1586 -3.00079 
0.00710937 0.00407813 1.94044 3.27317e+21 2.17666e-05 -3.15574 7.67988 -0.748559 
0.00820312 0.00407813 1.97382 3.50914e+21 2.33358e-05 -3.17013 10.0217 0.00775195 
0.00710937 0.00417188 2.09663 3.40052e+21 2.26135e-05 -2.34327 2.5289 1.70054 
0.00710937 0.00426563 1.89663 3.33306e+21 2.21649e-05 2.56421 9.80249 2.30885 
0.00820312 0.00426563 2.0371 3.39128e+21 2.2552e-05 -1.66148 13.5869 -4.08 
0.00710937 0.00435938 1.97141 3.15101e+21 2.09542e-05 -0.340789 6.84939 1.74642 
0.00710937 0.00445313 1.97821 3.42277e+21 2.27614e-05 -1.82115 10.2401 -1.32936 
0.00820312 0.00445313 2.00735 3.40185e+21 2.26223e-05 0.450303 8.93538 2.55598 
0.0136719 0.00398438 2.04143 2.43862e+21 1.62169e-05 -2.001 -1.30507 0.0268008 
0.0147656 0.00398438 2.01139 2.5516e+21 1.69681e-05 1.41411 -2.65616 -0.34109 
0.0136719 0.00407813 2.01169 2.52719e+21 1.68058e-05 -2.3344 -1.27103 -0.427429 
0.0147656 0.00407813 2.00558 2.64137e+21 1.75651e-05 -3.79085 -2.3625 -1.02799 
0.00929687 0.00435938 1.99997 3.48985e+21 2.32075e-05 3.10721 5.5229 4.41988 
0.0103906 0.00435938 0 0 0 0 0 0 
0.00929687 0.00445313 1.90518 3.33329e+21 2.21664e-05 2.18432 7.76067 1.4866 
0.0103906 0.00445313 0 0 0 0 0 0 
0.0136719 0.00417188 1.96004 2.57085e+21 1.70962e-05 -3.11024 -1.60502 1.48291 
0.0147656 0.00417188 1.9709 2.58202e+21 1.71704e-05 0.633603 -4.3381 0.416652 
0.0136719 0.00426563 1.91156 2.58349e+21 1.71802e-05 1.5815 -2.47995 2.50363 
0.0147656 0.00426563 2.0248 2.43066e+21 1.61639e-05 1.7139 -1.05411 1.73065 
0.00710937 0.00614063 2.03159 3.10902e+21 2.0675e-05 -1.29325 5.42671 1.26788 
0.0136719 0.00623438 2.00389 2.45479e+21 1.63244e-05 -0.414505 -1.63633 1.66403 
0.0136719 0.00632813 1.98271 2.49201e+21 1.65719e-05 -0.964938 -1.59126 1.1918 
0.0158594 0.00623438 1.90714 2.53446e+21 1.68542e-05 3.81125 0.0769801 -1.54662 
0.0169531 0.00623438 1.981 2.45977e+21 1.63575e-05 0.866021 -2.70889 -2.23859 
0.0169531 0.00632813 1.99016 2.44786e+21 1.62783e-05 5.16096 -3.07791 -2.59616 
0.0147656 0.00642188 1.90234 2.56923e+21 1.70853e-05 3.86703 -0.175718 0.0702038 
0.0147656 0.00651563 2.01372 2.4203e+21 1.6095e-05 -1.41707 -0.96964 -2.04494 
0.0158594 0.00651563 1.99684 2.4203e+21 1.6095e-05 4.69968 -1.37226 -2.19403 
0.0136719 0.00660938 2.04497 2.42354e+21 1.61165e-05 0.116872 0.573564 -1.07085 
0.0158594 0.00660938 2.10973 2.56209e+21 1.70379e-05 2.79794 -0.102357 0.894131 
0.0169531 0.00670313 2.02063 2.66288e+21 1.77081e-05 -1.69753 -0.792711 0.352161 
0.0103906 0.00698437 0 0 0 0 0 0 
0.0103906 0.00707812 0 0 0 0 0 0 
0.0158594 0.00689062 1.92525 2.51834e+21 1.67469e-05 0.959883 -0.653245 -0.304614 
0.0136719 0.00726562 2.0179 2.50799e+21 1.66781e-05 -1.17426 -2.08834 -0.737817 
0.0158594 0.00745312 2.04028 2.59067e+21 1.7228e-05 2.77196 -0.135645 -0.272404 
0.0169531 0.00745312 2.06104 2.47822e+21 1.64801e-05 1.39697 0.265877 2.56837 
0.00820312 0.0127031 2.02948 2.96972e+21 1.97486e-05 0.183286 0.782062 -0.757276 
0.0158594 0.0127031 1.96533 2.52898e+21 1.68177e-05 3.36055 -0.402133 -2.32517 
0.0311719 0.00342187 1.9794 2.5628e+21 1.70426e-05 4.69599 -1.86538 1.94136 
0.0322656 0.00342187 2.04288 2.34508e+21 1.55948e-05 -1.35949 1.862 4.13863 
0.0311719 0.00351562 1.91509 2.55627e+21 1.69992e-05 -1.36299 7.17226 3.07099 
0.0322656 0.00351562 1.88001 2.3576e+21 1.5678e-05 5.15401 1.62683 1.70911 
0.0202344 0.00417188 1.92879 2.42204e+21 1.61065e-05 3.5742 2.58167 1.06994 
0.0213281 0.00417188 2.05343 2.38111e+21 1.58344e-05 -0.910334 2.80764 0.691245 
0.0202344 0.00426563 1.8689 2.51435e+21 1.67204e-05 -0.00446745 1.15462 1.83005 
0.0213281 0.00426563 1.96295 2.60896e+21 1.73496e-05 -0.159884 2.07976 -2.84599 
0.0267969 0.00379687 1.97941 2.52635e+21 1.68002e-05 -0.352326 3.94311 -3.61555 
0.0278906 0.00379687 2.01615 2.51408e+21 1.67187e-05 2.90865 -0.548331 -2.22668 
0.0267969 0.00389062 1.90083 2.55723e+21 1.70056e-05 2.7702 3.37529 -0.770427 
0.0278906 0.00389062 1.97857 2.40563e+21 1.59974e-05 5.33661 0.211201 0.330149 
0.0267969 0.00398438 2.03524 2.41136e+21 1.60355e-05 6.39191 2.812 -0.546191 
0.0278906 0.00398438 2.17081 2.20879e+21 1.46884e-05 2.05731 1.38812 3.11095 
0.0267969 0.00407813 2.00897 2.45107e+21 1.62996e-05 3.01546 4.05827 -3.19106 
0.0278906 0.00407813 1.98321 2.52339e+21 1.67805e-05 -2.96194 -0.157817 2.3731 
0.0289844 0.00398438 1.97328 2.38019e+21 1.58283e-05 0.0229089 -4.24296 3.29569 
0.0300781 0.00398438 1.92171 2.60224e+21 1.73049e-05 3.32848 -3.41695 1.79477 
0.0289844 0.00407813 1.9662 2.40921e+21 1.60212e-05 0.454589 -1.84833 0.518825 
0.0300781 0.00407813 2.05696 2.6604e+21 1.76917e-05 1.56737 -1.5079 2.8839 
0.0267969 0.00435938 1.93569 2.44604e+21 1.62662e-05 3.13068 2.51711 -0.00656741 
0.0278906 0.00435938 1.95372 2.47808e+21 1.64793e-05 4.28605 0.452815 2.16062 
0.0278906 0.00445313 2.07665 2.54093e+21 1.68972e-05 6.30339 -1.19477 -2.70799 
0.0333594 0.00417188 1.97569 2.48156e+21 1.65024e-05 1.47267 2.8417 2.2956 
0.0344531 0.00417188 2.10838 2.63038e+21 1.7492e-05 4.59591 -3.42804 3.12268 
0.0333594 0.00426563 1.90722 2.51799e+21 1.67446e-05 0.720705 -0.49915 2.40114 
0.0344531 0.00426563 2.01666 2.4343e+21 1.61881e-05 2.09545 1.6422 2.82772 
0.0311719 0.00435938 1.93672 2.45316e+21 1.63135e-05 -0.52636 1.23701 -1.51832 
0.0322656 0.00435938 1.94561 2.42468e+21 1.61241e-05 4.63271 5.8194 4.59571 
0.0311719 0.00445313 1.9313 2.42243e+21 1.61091e-05 3.77327 -1.13004 2.34431 
0.0322656 0.00445313 2.1028 2.40151e+21 1.59701e-05 1.34166 2.87832 0.965705 
0.0180469 0.00604688 2.08902 2.39743e+21 1.59429e-05 1.27467 -0.0117288 -4.2777 
0.0191406 0.00604688 1.94447 2.33326e+21 1.55162e-05 3.5288 -1.1891 2.42398 
0.0180469 0.00614063 1.96928 2.4215e+21 1.61029e-05 1.2669 0.423319 -1.58803 
0.0180469 0.00623438 2.03804 2.40749e+21 1.60098e-05 3.91089 -3.47236 -1.74223 
0.0191406 0.00623438 1.93037 2.4523e+21 1.63078e-05 2.79502 -2.83667 1.73652 
0.0180469 0.00632813 2.01982 2.43559e+21 1.61967e-05 2.94916 -3.2942 -1.8289 
0.0191406 0.00632813 1.96845 2.50182e+21 1.66371e-05 2.78684 3.4618 -0.548527 
0.0257031 0.00604688 2.01717 2.27936e+21 1.51577e-05 -0.224647 -1.79524 -0.217492 
0.0246094 0.00614063 1.96188 2.52766e+21 1.68089e-05 1.29106 0.899517 -0.404973 
0.0257031 0.00614063 1.96119 2.55799e+21 1.70106e-05 -1.29127 1.97527 -0.0342064 
0.0246094 0.00623438 2.0168 2.43488e+21 1.61919e-05 -0.933379 -2.11576 -1.16885 
0.0202344 0.00651563 2.01163 2.42506e+21 1.61266e-05 1.19815 -2.23597 0.701446 
0.0180469 0.00660938 1.94956 2.53157e+21 1.68349e-05 3.72806 1.13064 3.40412 
0.0191406 0.00660938 2.02741 2.548e+21 1.69442e-05 1.21174 -3.6226 -0.670915 
0.0180469 0.00670313 2.03899 2.35491e+21 1.56602e-05 2.80763 -3.33001 0.876001 
0.0246094 0.00642188 1.96176 2.45321e+21 1.63139e-05 2.04764 -2.12417 0.974054 
0.0257031 0.00642188 1.97969 2.44354e+21 1.62496e-05 1.85592 1.59038 0.796801 
0.0246094 0.00651563 2.03946 2.3798e+21 1.58257e-05 3.23056 3.45365 -1.65776 
0.0235156 0.00660938 2.05255 2.59028e+21 1.72253e-05 1.14335 -0.0690724 -0.0121133 
0.0235156 0.00670313 1.88339 2.54247e+21 1.69074e-05 3.2726 4.16007 0.584926 
0.0257031 0.00670313 1.96656 2.40817e+21 1.60143e-05 -0.250861 -3.23066 -1.56666 
0.0267969 0.00604688 1.98228 2.4385e+21 1.6216e-05 1.06092 0.888227 3.39687 
0.0278906 0.00604688 1.95197 2.53604e+21 1.68647e-05 5.17269 1.39997 1.40869 
0.0267969 0.00614063 2.00792 2.39116e+21 1.59012e-05 6.13843 5.15932 -1.75063 
0.0300781 0.00604688 2.0633 2.49497e+21 1.65916e-05 3.28014 -0.384955 -3.9647 
0.0300781 0.00614063 2.04129 2.65404e+21 1.76494e-05 3.83038 -2.66754 -0.723964 
0.0278906 0.00632813 1.963 2.4871e+21 1.65392e-05 4.2778 -0.272908 0.53796 
0.0344531 0.00604688 1.95762 2.4231e+21 1.61136e-05 5.28932 -3.89945 -1.74381 
0.0333594 0.00614063 2.07623 2.43666e+21 1.62038e-05 0.0780045 2.63614 0.325175 
0.0344531 0.00614063 1.92098 2.41644e+21 1.60693e-05 3.04973 -0.400503 -4.2105 
0.0311719 0.00623438 2.04755 2.51454e+21 1.67217e-05 3.91519 -0.182032 -1.45599 
0.0322656 0.00623438 1.99217 2.65147e+21 1.76323e-05 3.98625 3.30161 0.206015 
0.0311719 0.00632813 1.96244 2.60484e+21 1.73222e-05 -0.381397 0.397378 -1.86667 
0.0322656 0.00632813 1.97973 2.53616e+21 1.68654e-05 0.79521 0.536871 -1.22682 
0.0333594 0.00623438 2.00628 2.49214e+21 1.65727e-05 3.05607 -0.5902 -0.623237 
0.0267969 0.00642188 1.92415 2.47013e+21 1.64264e-05 1.33948 0.301675 0.896201 
0.0278906 0.00642188 2.05365 2.4798e+21 1.64907e-05 1.93762 -0.0156869 0.686649 
0.0267969 0.00660938 1.93278 2.54331e+21 1.6913e-05 2.78155 3.98687 2.58151 
0.0278906 0.00670313 1.99436 2.37343e+21 1.57833e-05 2.08038 3.26416 0.598483 
0.0289844 0.00660938 1.96086 2.57149e+21 1.71004e-05 3.20763 -1.56073 -2.05968 
0.0289844 0.00670313 2.04848 2.41975e+21 1.60913e-05 0.114939 -0.894512 -3.6837 
0.0300781 0.00670313 1.92536 2.47069e+21 1.64301e-05 -0.293544 0.732083 1.24733 
0.0311719 0.00660938 2.01317 2.37892e+21 1.58198e-05 -1.35477 0.821959 0.166049 
0.0311719 0.00670313 2.00681 2.58878e+21 1.72154e-05 -0.387738 -3.88786 -0.751698 
0.0191406 0.00689062 1.97177 2.34039e+21 1.55636e-05 2.68294 -0.0417049 -0.138587 
0.0202344 0.00689062 2.07529 2.54312e+21 1.69117e-05 -0.147813 2.94978 -2.54665 
0.0213281 0.00689062 2.0248 2.3494e+21 1.56235e-05 4.19549 -2.8889 -3.02783 
0.0191406 0.00707812 1.96246 2.48233e+21 1.65075e-05 3.37602 -2.26403 0.997041 
0.0202344 0.00707812 1.99971 2.42751e+21 1.61429e-05 -1.51143 0.0787154 4.28028 
0.0224219 0.00689062 1.94767 2.59492e+21 1.72562e-05 0.0963657 -0.465697 0.846941 
0.0246094 0.00679687 1.96249 2.38865e+21 1.58845e-05 1.29345 2.52871 0.0118527 
0.0257031 0.00689062 1.97177 2.40121e+21 1.5968e-05 0.602375 2.05162 1.73828 
0.0224219 0.00698437 1.99235 2.48676e+21 1.65369e-05 3.78966 1.99592 0.995912 
0.0191406 0.00745312 2.01591 2.56985e+21 1.70895e-05 0.126452 -4.32374 0.36054 
0.0246094 0.00717187 1.99708 2.43906e+21 1.62197e-05 2.54092 0.507713 -0.0728243 
0.0235156 0.00735937 2.13872 2.55408e+21 1.69846e-05 3.99211 -0.955518 -0.629727 
0.0267969 0.00698437 1.96513 2.59565e+21 1.72611e-05 4.14845 -1.22376 0.702119 
0.0344531 0.00679687 2.09081 2.34298e+21 1.55808e-05 4.35285 1.70483 -0.179196 
0.0344531 0.00698437 2.02035 2.48898e+21 1.65517e-05 3.69619 3.02292 3.56676 
0.0333594 0.00707812 1.98172 2.57004e+21 1.70908e-05 0.614865 -0.142456 -4.25387 
0.0289844 0.00745312 1.95188 2.397e+21 1.594e-05 0.839024 -2.97969 1.61859 
0.0311719 0.00717187 1.9964 2.47152e+21 1.64356e-05 1.18369 -1.30499 -0.339448 
0.0311719 0.00726562 2.00611 2.37981e+21 1.58258e-05 4.29592 -2.36634 -2.12718 
0.0333594 0.00745312 2.02511 2.45323e+21 1.6314e-05 0.460276 0.871695 -0.489062 
0.0180469 0.0131719 0 0 0 0 0 0 
0.0180469 0.0132656 0 0 0 0 0 0 
0.0180469 0.0159844 0 0 0 0 0 0 
0.0180469 0.0160781 0 0 0 0 0 0 
0.0180469 0.0184219 0 0 0 0 0 0 
0.0180469 0.0185156 0 0 0 0 0 0 
0.0180469 0.0187969 0 0 0 0 0 0 
0.0180469 0.0188906 0 0 0 0 0 0 
0.0180469 0.0193594 0 0 0 0 0 0 
0.0180469 0.0194531 0 0 0 0 0 0 
0.0180469 0.0210469 0 0 0 0 0 0 
0.0180469 0.0211406 0 0 0 0 0 0 
0.0180469 0.0212344 0 0 0 0 0 0 
0.0180469 0.0213281 0 0 0 0 0 0 
0.00601562 0.00154688 1.91872 7.79406e+21 5.18305e-05 18.4866 -0.810831 0.820004 
0.00492187 0.00164063 0 0 0 0 0 0 
0.00601562 0.00164063 1.8568 3.74948e+21 2.49341e-05 21.5482 17.758 1.39335 
0.00710937 0.00248438 1.89085 3.32373e+21 2.21028e-05 -2.04491 10.047 0.243761 
0.00820312 0.00248438 1.95682 3.94849e+21 2.62574e-05 -1.62077 16.9175 0.551007 
0.00710937 0.00257813 1.89554 3.27511e+21 2.17795e-05 2.53505 8.34998 3.0542 
0.00820312 0.00257813 1.94843 3.76878e+21 2.50624e-05 1.19399 14.0283 1.83381 
0.00820312 0.00454687 2.00598 3.20199e+21 2.12933e-05 1.78266 11.3837 1.77348 
0.00710937 0.00473437 1.92208 3.26533e+21 2.17145e-05 -2.06192 9.64477 -1.76338 
0.00820312 0.00473437 1.95727 3.22599e+21 2.14528e-05 -0.810926 8.5503 -3.80721 
0.00820312 0.00482812 2.05208 3.10548e+21 2.06515e-05 -3.06469 13.9382 -1.19824 
0.00710937 0.00501562 1.90586 3.28029e+21 2.18139e-05 -2.29128 9.5841 1.13366 
0.00820312 0.00501562 1.95179 3.19983e+21 2.12788e-05 0.897418 9.60325 0.259535 
0.00710937 0.00510937 2.02357 3.30819e+21 2.19995e-05 -0.812256 12.5321 -2.57789 
0.00820312 0.00520312 1.9263 3.25157e+21 2.16229e-05 -4.78599 8.12071 -0.158871 
0.0136719 0.00454687 2.01383 2.61485e+21 1.73887e-05 -0.551062 1.62012 -1.48784 
0.0147656 0.00454687 1.90086 2.47148e+21 1.64353e-05 3.40237 3.07389 3.14129 
0.0136719 0.00464062 1.98633 2.4851e+21 1.65259e-05 1.02901 0.416686 1.6482 
0.0147656 0.00464062 1.9875 2.49847e+21 1.66149e-05 -4.06498 -0.707924 -2.82751 
0.0136719 0.00492187 2.10235 2.51023e+21 1.6693e-05 -1.44366 -1.04057 -1.51364 
0.0147656 0.00492187 2.00786 2.32102e+21 1.54348e-05 0.475069 -3.5319 -1.35082 
0.0136719 0.00501562 2.01517 2.55615e+21 1.69984e-05 -0.93564 1.45267 -0.0527619 
0.0147656 0.00501562 2.03771 2.39832e+21 1.59488e-05 0.94715 -3.22183 -1.56547 
0.0158594 0.00510937 1.99266 2.4333e+21 1.61814e-05 0.0338441 -4.15614 -0.464184 
0.0169531 0.00510937 2.08318 2.37254e+21 1.57774e-05 3.07211 0.184525 4.2889 
0.0169531 0.00520312 1.98418 2.3119e+21 1.53741e-05 1.11205 2.96883 -0.230541 
0.00710937 0.00529687 1.96386 3.28779e+21 2.18638e-05 -2.18136 5.48696 2.51054 
0.00820312 0.00529687 1.9371 3.16472e+21 2.10454e-05 -1.84056 8.34567 0.563454 
0.0136719 0.00529687 2.04959 2.49954e+21 1.66219e-05 -0.136481 -3.05681 1.46715 
0.0147656 0.00529687 1.97049 2.33837e+21 1.55502e-05 2.79621 1.15552 -5.07093 
0.0147656 0.00539062 1.98816 2.43016e+21 1.61605e-05 -0.0321421 -2.17378 3.39307 
0.0136719 0.00548437 2.03428 2.5754e+21 1.71264e-05 0.510693 -0.395198 2.36746 
0.0136719 0.00557812 2.06261 2.47647e+21 1.64685e-05 1.07746 -0.998896 -1.30937 
0.0147656 0.00557812 1.99174 2.46812e+21 1.6413e-05 1.19404 -0.971126 -3.22833 
0.0158594 0.00548437 2.09178 2.47635e+21 1.64677e-05 0.320674 2.46199 -2.87223 
0.0169531 0.00548437 2.06013 2.51314e+21 1.67124e-05 1.85708 -4.48259 -2.40613 
0.0158594 0.00557812 2.0473 2.41525e+21 1.60614e-05 3.97276 -1.09693 0.851612 
0.0169531 0.00567187 1.93919 2.36986e+21 1.57595e-05 5.12295 1.35375 3.74563 
0.0169531 0.00576562 2.05283 2.51707e+21 1.67385e-05 -0.17857 -2.50908 2.72903 
0.0136719 0.00585938 1.93829 2.4768e+21 1.64707e-05 0.275833 -0.500831 1.19362 
0.0147656 0.00585938 1.90128 2.4821e+21 1.6506e-05 -4.89223 -0.902642 -4.22956 
0.0136719 0.00595313 2.04774 2.25529e+21 1.49977e-05 -1.5342 -1.09781 -0.183274 