ITEM: TIMESTEP
500000
ITEM: NUMBER OF CELLS
34954
ITEM: BOX BOUNDS oo ao pp
0 0.35
0 0.03
-0.1 0.1
ITEM: CELLS xc yc f_out[1] f_out[2] f_out[3] f_out[4] f_out[5] f_out[6] 
0.00875 0.01575 0 0 0 0 0 0 
0.00875 0.01875 0 0 0 0 0 0 
0.00875 0.02175 0 0 0 0 0 0 
0.00875 0.02475 0 0 0 0 0 0 
0.00875 0.02775 0 0 0 0 0 0 
0.02625 0.02475 0 0 0 0 0 0 
0.02625 0.02775 0 0 0 0 0 0 
0.00875 0.01425 0 0 0 0 0 0 
0.00875 0.01725 0 0 0 0 0 0 
0.00875 0.02025 0 0 0 0 0 0 
0.00875 0.02325 0 0 0 0 0 0 
0.00875 0.02625 0 0 0 0 0 0 
0.00875 0.02925 0 2.07284e+15 1.37844e-11 -55.7406 4.54412 0.239338 
0.02625 0.02325 0 0 0 0 0 0 
0.02625 0.02625 0 0 0 0 0 0 
0.02625 0.02925 0.0436877 8.29134e+15 5.51374e-11 -82.4072 9.14215 3.40059 
0.04375 0.02325 0 0 0 0 0 0 
0.04375 0.02625 0 0 0 0 0 0 
0.04375 0.02925 0.260676 4.35296e+16 2.89472e-10 -106.173 19.8858 1.65806 
0.004375 0.013125 0 0 0 0 0 0 
0.013125 0.013125 0 0 0 0 0 0 
0.021875 0.022125 0 0 0 0 0 0 
0.030625 0.022125 0 0 0 0 0 0 
0.0021875 0.0001875 1.94322 1.41116e+22 9.38421e-05 30.784 4.44143 0.597022 
0.0021875 0.0031875 0 0 0 0 0 0 
0.0021875 0.0035625 0 0 0 0 0 0 
0.0021875 0.0039375 0 0 0 0 0 0 
0.0021875 0.0043125 0 0 0 0 0 0 
0.0021875 0.0061875 0 0 0 0 0 0 
0.0021875 0.0065625 0 0 0 0 0 0 
0.0021875 0.0069375 0 0 0 0 0 0 
0.0021875 0.0073125 0 0 0 0 0 0 
0.0021875 0.0091875 0 0 0 0 0 0 
0.0021875 0.0095625 0 0 0 0 0 0 
0.0021875 0.0099375 0 0 0 0 0 0 
0.0021875 0.0103125 0 0 0 0 0 0 
0.0021875 0.0121875 0 0 0 0 0 0 
0.0021875 0.0125625 0 0 0 0 0 0 
0.0021875 0.0020625 0 0 0 0 0 0 
0.0021875 0.0024375 0 0 0 0 0 0 
0.0021875 0.0028125 0 0 0 0 0 0 
0.0021875 0.0046875 0 0 0 0 0 0 
0.0021875 0.0050625 0 0 0 0 0 0 
0.0021875 0.0054375 0 0 0 0 0 0 
0.0021875 0.0058125 0 0 0 0 0 0 
0.0021875 0.0076875 0 0 0 0 0 0 
0.0021875 0.0080625 0 0 0 0 0 0 
0.0021875 0.0084375 0 0 0 0 0 0 
0.0021875 0.0088125 0 0 0 0 0 0 
0.0021875 0.0106875 0 0 0 0 0 0 
0.0021875 0.0110625 0 0 0 0 0 0 
0.0021875 0.0114375 0 0 0 0 0 0 
0.0021875 0.0118125 0 0 0 0 0 0 
0.00109375 0.00046875 0 0 0 0 0 0 
0.00328125 0.00046875 2.03001 1.42139e+22 9.45223e-05 29.2429 -3.99395 -1.99949 
0.00109375 0.00065625 0 0 0 0 0 0 
0.00765625 0.00046875 1.8133 4.9834e+21 3.31396e-05 45.1602 4.63764 1.04565 
0.00765625 0.00065625 1.81903 5.13241e+21 3.41305e-05 44.5507 6.58134 -1.10954 
0.00109375 0.00084375 0 0 0 0 0 0 
0.00109375 0.00103125 0 0 0 0 0 0 
0.00109375 0.00121875 0 0 0 0 0 0 
0.00109375 0.00140625 0 0 0 0 0 0 
0.00546875 0.00309375 1.83461 3.22786e+21 2.14653e-05 -5.30701 -0.318363 2.41921 
0.00546875 0.00328125 2.09892 3.23819e+21 2.1534e-05 4.96826 0.940315 -2.11977 
0.00546875 0.00346875 2.05372 2.948e+21 1.96042e-05 5.68084 1.20707 -2.43138 
0.00546875 0.00365625 1.86479 3.24474e+21 2.15776e-05 5.7062 1.22874 9.99741 
0.0120312 0.00309375 2.0146 2.46609e+21 1.63995e-05 2.13992 -4.86721 2.91724 
0.0120312 0.00328125 1.90918 2.4956e+21 1.65957e-05 -4.96701 0.288455 -0.548445 
0.0120312 0.00346875 2.03838 2.41828e+21 1.60815e-05 -2.56696 -0.0855833 -1.98568 
0.0120312 0.00365625 1.87958 2.58924e+21 1.72184e-05 -7.39028 0.626533 1.85723 
0.00546875 0.00384375 1.86579 3.31509e+21 2.20454e-05 1.05551 2.73163 4.14551 
0.00546875 0.00403125 1.93244 3.44826e+21 2.29309e-05 1.31609 5.91141 -4.91772 
0.00546875 0.00421875 2.01138 3.20978e+21 2.13451e-05 -1.9957 4.49202 -3.33217 
0.00546875 0.00440625 1.92733 3.17292e+21 2.10999e-05 3.80644 6.5928 0.951847 
0.0120312 0.00384375 1.94974 2.49931e+21 1.66204e-05 0.214138 0.590055 -2.3925 
0.0120312 0.00403125 1.87769 2.38306e+21 1.58474e-05 -0.259066 -4.07548 -0.174905 
0.0120312 0.00421875 2.03311 2.20613e+21 1.46708e-05 -1.33901 1.79343 -4.38943 
0.0120312 0.00440625 2.06156 2.48847e+21 1.65484e-05 -2.6705 1.75038 -0.985132 
0.00546875 0.00609375 2.02428 3.22508e+21 2.14468e-05 -3.50486 1.83112 5.39269 
0.00546875 0.00628125 1.94935 3.13517e+21 2.08489e-05 3.02644 8.48206 5.25865 
0.00546875 0.00646875 1.96788 3.11222e+21 2.06963e-05 3.80724 2.77294 -0.304746 
0.00546875 0.00665625 1.98086 3.06656e+21 2.03926e-05 -0.329622 4.65243 -3.32437 
0.0120312 0.00609375 2.16448 2.48108e+21 1.64992e-05 0.740328 -0.545512 2.24705 
0.0120312 0.00628125 2.06869 2.54693e+21 1.69371e-05 -1.95143 -0.642783 2.93449 
0.0120312 0.00646875 1.94878 2.28476e+21 1.51937e-05 -1.47902 -2.2979 3.03421 
0.0120312 0.00665625 1.97406 2.49345e+21 1.65815e-05 -0.627723 3.2867 -2.18573 
0.00546875 0.00684375 2.06626 2.77826e+21 1.84754e-05 4.44828 7.69699 1.33234 
0.00546875 0.00703125 1.96065 3.295e+21 2.19117e-05 0.930746 1.13628 -0.342871 
0.00546875 0.00721875 2.00382 3.24262e+21 2.15634e-05 -3.08318 3.91744 0.693909 
0.00546875 0.00740625 1.97563 2.98254e+21 1.98339e-05 1.20322 3.24927 -4.00954 
0.0120312 0.00684375 2.04273 2.25879e+21 1.5021e-05 3.76626 -2.41628 -1.12736 
0.0120312 0.00721875 2.08143 2.40706e+21 1.6007e-05 5.52921 -1.52185 1.93668 
0.00546875 0.00909375 2.1982 2.78049e+21 1.84902e-05 0.771989 7.89798 3.20231 
0.00546875 0.00928125 2.07476 2.92659e+21 1.94618e-05 -2.95888 1.07165 1.58429 
0.00546875 0.00946875 2.01309 2.63662e+21 1.75335e-05 3.50107 4.51705 -2.43412 
0.00546875 0.00965625 2.0608 2.85017e+21 1.89536e-05 -1.01036 -0.93887 -1.88814 
0.00546875 0.00984375 1.98564 2.77559e+21 1.84577e-05 1.55384 6.95788 5.02664 
0.00546875 0.0100312 1.9393 2.69185e+21 1.79008e-05 0.441445 0.195424 5.76637 
0.00546875 0.0102187 2.04617 2.91218e+21 1.9366e-05 -3.69912 -1.04872 0.354606 
0.00546875 0.0104062 1.99095 2.82132e+21 1.87618e-05 5.65364 2.59741 4.88801 
0.00546875 0.0120938 1.97672 2.89336e+21 1.92409e-05 0.313916 1.96742 -0.222992 
0.00546875 0.0122813 2.08618 2.88172e+21 1.91634e-05 3.12753 0.517047 1.09146 
0.00546875 0.0124688 2.07248 2.71985e+21 1.8087e-05 -0.96496 0.561621 -0.7015 
0.00546875 0.0126563 2.03252 2.7642e+21 1.8382e-05 -2.85748 -0.0570456 3.07648 
0.0339062 0.00121875 2.02741 2.50253e+21 1.66418e-05 1.87518 0.432822 -1.29728 
0.0317187 0.00140625 2.0333 2.3289e+21 1.54872e-05 0.792764 -0.366499 3.22834 
0.0339062 0.00140625 1.96112 2.34821e+21 1.56156e-05 -3.62584 4.6681 0.484762 
0.0185937 0.0216562 2.27052 2.49088e+21 1.65644e-05 -1.50513 3.52687 0.452524 
0.00109375 0.00159375 0 0 0 0 0 0 
0.00109375 0.00178125 0 0 0 0 0 0 
0.00328125 0.00178125 0 0 0 0 0 0 
0.00546875 0.00178125 2.04877 2.78072e+21 1.84918e-05 8.12925 17.565 -0.650709 
0.00546875 0.00196875 1.85462 3.38833e+21 2.25324e-05 -0.983678 -0.486233 0.852643 
0.00546875 0.00215625 2.1271 3.26042e+21 2.16818e-05 -6.82027 3.34187 2.6244 
0.00546875 0.00234375 1.91282 2.91437e+21 1.93806e-05 -0.96652 6.25732 -4.62684 
0.00546875 0.00253125 2.07194 2.88786e+21 1.92043e-05 2.90616 1.69145 1.74784 
0.00546875 0.00271875 1.95137 3.29108e+21 2.18857e-05 -8.35074 -1.17176 -3.48291 
0.00546875 0.00290625 1.90936 3.03752e+21 2.01995e-05 10.0736 -4.32499 2.90914 
0.00984375 0.00271875 1.9315 3.77456e+21 2.51008e-05 -0.674622 14.7255 -1.23002 
0.0120312 0.00271875 1.92402 2.34343e+21 1.55838e-05 2.06808 -0.864551 6.58626 
0.00984375 0.00290625 2.01597 3.47113e+21 2.3083e-05 -1.07937 10.7143 -1.18545 
0.0120312 0.00290625 1.97186 2.06167e+21 1.37101e-05 3.96609 1.81337 4.18795 
0.00546875 0.00459375 2.09072 3.34775e+21 2.22626e-05 -2.12376 2.31451 -2.60192 
0.00546875 0.00478125 2.01357 3.31672e+21 2.20562e-05 3.87283 0.91486 2.73602 
0.00546875 0.00496875 2.17689 3.07097e+21 2.0422e-05 -4.13234 4.36936 -0.636749 
0.00546875 0.00515625 1.97726 2.98254e+21 1.98339e-05 0.841405 7.25267 -1.5926 
0.0120312 0.00459375 2.00045 2.56951e+21 1.70872e-05 0.183032 -6.76687 -2.48881 
0.0120312 0.00478125 2.00976 2.52305e+21 1.67783e-05 2.75596 3.01424 0.578468 
0.0120312 0.00496875 2.07241 2.47205e+21 1.64392e-05 -2.93036 0.38072 0.121222 
0.0120312 0.00515625 2.08016 2.58745e+21 1.72066e-05 0.163025 -4.62504 -0.963222 
0.00546875 0.00534375 1.98707 3.31892e+21 2.20708e-05 -2.74777 4.6845 1.20151 
0.00546875 0.00553125 2.05398 3.09087e+21 2.05543e-05 -2.08853 5.43685 -1.9215 
0.00546875 0.00571875 1.91834 3.24797e+21 2.1599e-05 -2.73647 0.248081 -1.66888 
0.00546875 0.00590625 2.0376 3.22602e+21 2.1453e-05 -1.94755 5.03936 1.39946 
0.0120312 0.00534375 2.00169 2.47424e+21 1.64537e-05 2.04177 -0.202713 -3.44327 
0.0120312 0.00553125 1.94276 2.49147e+21 1.65683e-05 -1.49065 0.82649 1.75483 
0.0120312 0.00571875 1.95919 2.37137e+21 1.57696e-05 -2.50722 2.12434 -1.00021 
0.0120312 0.00590625 2.0931 2.47193e+21 1.64383e-05 1.97013 -2.56969 1.21758 
0.00546875 0.00759375 1.91751 3.0141e+21 2.00438e-05 2.65626 1.04665 -0.985691 
0.00546875 0.00778125 2.0125 2.84394e+21 1.89122e-05 3.96552 2.83367 -1.64412 
0.00546875 0.00796875 1.96249 2.95748e+21 1.96672e-05 2.6706 7.75633 6.26333 
0.00546875 0.00815625 1.99095 2.8699e+21 1.90848e-05 2.08618 1.11691 -2.56031 
0.0120312 0.00778125 2.04749 2.44096e+21 1.62324e-05 -0.707268 -1.93564 -1.82885 
0.0120312 0.00796875 1.99177 2.34844e+21 1.56171e-05 -0.666998 0.403457 1.5619 
0.0120312 0.00815625 2.03869 2.35812e+21 1.56815e-05 -2.57117 0.876349 1.68736 
0.00546875 0.00834375 2.06737 3.00169e+21 1.99613e-05 -0.141936 2.45369 -1.72695 
0.00546875 0.00853125 2.09205 3.01064e+21 2.00207e-05 -1.28143 0.962539 0.846593 
0.00546875 0.00871875 1.98853 3.08792e+21 2.05346e-05 -2.58282 4.41583 -0.308448 
0.00546875 0.00890625 1.85221 2.97806e+21 1.98041e-05 2.47894 2.60779 0.457528 
0.0120312 0.00853125 1.86062 2.38557e+21 1.5864e-05 -3.21664 -1.456 4.91557 
0.00546875 0.0105937 1.86987 2.82795e+21 1.88059e-05 -0.559881 1.67079 -5.2807 
0.00546875 0.0107812 2.00345 2.91956e+21 1.94151e-05 0.773036 3.53913 -2.6273 
0.00546875 0.0109687 1.93951 2.62202e+21 1.74364e-05 3.55552 1.09649 5.56217 
0.00546875 0.0111562 2.0366 2.88587e+21 1.9191e-05 -0.159737 -0.228376 -0.850849 
0.00546875 0.0113437 1.95221 2.73253e+21 1.81713e-05 -2.01596 -0.72381 -0.45518 
0.00546875 0.0115312 1.97549 2.7747e+21 1.84518e-05 -1.32539 0.369239 -1.85726 
0.00546875 0.0119063 1.89409 2.75441e+21 1.83168e-05 0.791472 -0.814226 0.698358 
0.0196875 0.0001875 1.91171 2.63864e+21 1.75469e-05 -2.10715 4.62241 -2.82915 
0.0240625 0.0001875 1.97523 2.42134e+21 1.61019e-05 4.99956 3.30621 -0.8622 
0.0284375 0.0001875 1.91734 2.32821e+21 1.54826e-05 2.3525 -3.00661 -0.752645 
0.0328125 0.0001875 2.03213 2.4679e+21 1.64115e-05 0.933709 -0.606057 0.512102 
0.00984375 0.00196875 1.99266 4.38336e+21 2.91493e-05 0.428362 15.7758 0.734358 
0.0120312 0.00196875 2.13726 2.42458e+21 1.61235e-05 -4.71552 1.02444 -4.67268 
0.00984375 0.00215625 2.03221 4.13846e+21 2.75208e-05 6.79199 14.5409 -0.435728 
0.0120312 0.00215625 1.9928 2.45458e+21 1.63229e-05 1.96273 -0.528407 1.46417 
0.00984375 0.00234375 1.96989 4.26706e+21 2.83759e-05 3.7443 16.6665 0.0332589 
0.0120312 0.00234375 1.99625 2.40308e+21 1.59805e-05 7.9661 4.69939 2.98462 
0.00984375 0.00253125 1.86516 3.70592e+21 2.46444e-05 2.9593 15.8845 -0.0980406 
0.0120312 0.00253125 1.88746 2.54857e+21 1.6948e-05 1.45096 6.06359 0.159285 
0.0273437 0.00159375 1.98299 2.45421e+21 1.63205e-05 2.02405 -1.06134 -1.27037 
0.0404687 0.00159375 1.96835 2.29108e+21 1.52357e-05 -0.875705 2.43788 -0.79364 
0.0426562 0.00159375 1.96578 2.45421e+21 1.63205e-05 4.60874 1.78742 3.53202 
0.0448437 0.00159375 2.0201 2.47612e+21 1.64662e-05 2.3269 -1.89973 1.90937 
0.0448437 0.00178125 2.07506 2.43985e+21 1.6225e-05 3.34261 -0.0131321 1.01071 
0.0470312 0.00178125 1.99361 2.48124e+21 1.65003e-05 3.95277 1.84047 1.15076 
0.0514062 0.00159375 2.0434 2.49803e+21 1.66119e-05 4.32696 -5.02279 0.407698 
0.00273437 0.000609375 1.84641 1.07308e+22 7.13601e-05 26.9762 10.6502 12.2181 
0.00382812 0.000609375 1.87392 1.25827e+22 8.36748e-05 26.9231 -5.10551 5.80972 
0.00273437 0.000703125 1.94948 1.35924e+22 9.03895e-05 27.3743 -2.40517 7.60012 
0.00382812 0.000703125 1.95801 1.36202e+22 9.05743e-05 27.2619 -0.913745 -1.64575 
0.00492187 0.000609375 2.0119 1.13601e+22 7.55445e-05 42.686 -3.15453 -0.811372 
0.00601562 0.000609375 1.75951 8.32902e+21 5.5388e-05 48.9959 4.1091 -0.0790542 
0.00492187 0.000703125 1.89292 1.11699e+22 7.42797e-05 41.87 0.0294362 3.34607 
0.00601562 0.000703125 1.73174 8.4326e+21 5.60768e-05 44.2135 3.80644 8.54115 
0.00273437 0.000796875 1.87628 1.51494e+22 0.000100744 24.3238 -8.16126 1.6525 
0.00382812 0.000796875 1.9374 1.34202e+22 8.92445e-05 30.9684 -6.80394 -4.07215 
0.00273437 0.000890625 1.83308 1.50608e+22 0.000100155 32.0456 -2.11516 0.799699 
0.00382812 0.000890625 1.94089 1.34018e+22 8.91218e-05 31.6354 -2.47022 -1.50468 
0.00492187 0.000984375 1.89852 1.07063e+22 7.1197e-05 33.0346 -1.00967 -1.2499 
0.00601562 0.000984375 1.75777 8.48306e+21 5.64123e-05 40.4914 4.03144 -4.24575 
0.00492187 0.00107813 1.92296 9.9049e+21 6.58676e-05 33.0652 3.56922 -1.91431 
0.00601562 0.00107813 1.82558 8.07652e+21 5.37089e-05 46.5559 2.08788 -1.97388 
0.00273437 0.00117188 2.07106 1.54524e+22 0.000102759 24.746 -4.61817 11.517 
0.00382812 0.00117188 1.93104 1.37085e+22 9.11615e-05 24.8309 -2.59067 3.08079 
0.00273437 0.00126563 2.05559 1.47052e+22 9.77898e-05 16.0644 -9.86534 -5.46058 
0.00273437 0.00135937 2.16636 1.7268e+22 0.000114832 22.1483 -0.651241 -3.09674 
0.00273437 0.00145312 2.04429 1.7077e+22 0.000113562 13.6 -4.13135 -9.56573 
0.00492187 0.00117188 1.87154 1.0384e+22 6.90537e-05 27.5794 3.16342 -2.03568 
0.00601562 0.00117188 1.92499 8.10589e+21 5.39042e-05 41.9315 1.8415 -2.00699 
0.00492187 0.00126563 1.92174 1.11846e+22 7.43776e-05 28.2068 -3.44827 4.87007 
0.00601562 0.00126563 1.98057 8.1677e+21 5.43152e-05 39.8052 1.63251 0.506869 
0.00601562 0.00135937 1.9786 8.31233e+21 5.5277e-05 35.42 0.779466 0.0168738 
0.00601562 0.00145312 1.90181 7.47697e+21 4.97219e-05 28.6442 2.46711 -0.890112 
0.00710937 0.00135937 1.81393 4.5558e+21 3.02961e-05 39.9019 21.4089 -2.06328 
0.00820312 0.00135937 1.9957 4.23609e+21 2.817e-05 24.0875 20.0667 4.47264 
0.00710937 0.00145312 1.8365 4.4755e+21 2.97621e-05 31.295 21.1493 -0.978085 
0.00820312 0.00145312 2.00087 4.09097e+21 2.7205e-05 11.3623 16.4008 -0.141347 
0.00710937 0.00304688 1.92234 3.28576e+21 2.18503e-05 -0.707313 8.13031 -1.51274 
0.00820312 0.00304688 1.88872 3.63726e+21 2.41878e-05 4.41319 13.3102 -0.826827 
0.00710937 0.00314063 2.00492 3.21733e+21 2.13952e-05 1.09679 9.22665 1.95374 
0.00820312 0.00314063 1.97525 3.7066e+21 2.46489e-05 3.12986 13.9601 1.68954 
0.00710937 0.00323438 1.87487 3.23925e+21 2.1541e-05 5.08165 6.77244 4.88358 
0.00820312 0.00323438 1.97913 3.65675e+21 2.43174e-05 -6.10966 12.4287 0.607018 
0.00710937 0.00332813 2.06625 3.43249e+21 2.2826e-05 -3.54255 8.22067 0.966929 
0.00820312 0.00332813 2.05759 3.39984e+21 2.26089e-05 1.01274 18.6234 -0.149252 
0.00710937 0.00342187 2.02277 3.27041e+21 2.17482e-05 2.84318 8.00253 0.964261 
0.00820312 0.00342187 1.97051 3.46092e+21 2.30151e-05 -1.18826 16.4469 0.517677 
0.00710937 0.00351562 1.9324 3.3907e+21 2.25482e-05 -2.1454 9.5614 0.985109 
0.00820312 0.00351562 1.98177 3.28916e+21 2.18729e-05 -1.17655 16.6852 -1.94724 
0.00710937 0.00360937 2.00268 3.34993e+21 2.22771e-05 -1.82288 5.08304 0.585793 
0.00820312 0.00360937 1.89762 3.61225e+21 2.40215e-05 -2.98163 15.9301 -1.77006 
0.00710937 0.00370312 1.96379 3.44955e+21 2.29395e-05 -1.12603 9.05219 1.63443 
0.00820312 0.00370312 1.99229 3.3741e+21 2.24378e-05 -3.55673 13.8753 -0.296125 
0.00710937 0.00379687 1.98227 3.1191e+21 2.0742e-05 -5.08307 12.4266 0.037105 
0.00820312 0.00379687 1.92309 3.16815e+21 2.10682e-05 -4.32806 11.3525 -1.19337 
0.00710937 0.00389062 1.9571 3.5107e+21 2.33462e-05 -0.964628 11.0652 0.197088 
0.00820312 0.00389062 2.04536 3.41496e+21 2.27095e-05 -0.821404 11.9676 1.31523 
0.00710937 0.00398438 1.8904 3.38914e+21 2.25378e-05 -5.31045 5.87789 -1.00708 
0.00820312 0.00398438 2.04505 3.39693e+21 2.25896e-05 1.56794 10.5397 -0.647758 
0.00820312 0.00407813 1.95507 3.31884e+21 2.20703e-05 -3.38261 10.2637 -0.21506 
0.00710937 0.00417188 1.88922 3.27775e+21 2.1797e-05 -0.4523 5.86531 1.60151 
0.00820312 0.00417188 1.94329 3.32239e+21 2.20939e-05 3.01556 12.1777 -0.165236 
0.00710937 0.00426563 1.97517 3.28212e+21 2.18261e-05 1.69196 7.2077 -1.2943 
0.00820312 0.00426563 2.02015 3.58777e+21 2.38587e-05 -1.0604 14.6101 -0.767694 
0.00710937 0.00435938 2.01437 3.26138e+21 2.16882e-05 -2.38078 9.26937 2.1435 
0.00820312 0.00435938 2.08499 3.39312e+21 2.25643e-05 -2.67221 9.54897 0.858149 
0.00710937 0.00445313 2.12404 3.29032e+21 2.18806e-05 -3.67245 6.83724 -1.83566 
0.00929687 0.00435938 1.97589 3.41496e+21 2.27095e-05 3.12109 8.2141 -3.21705 
0.0103906 0.00435938 0 0 0 0 0 0 
0.00929687 0.00445313 1.96219 3.26487e+21 2.17114e-05 -3.61183 5.96367 2.25783 
0.0103906 0.00445313 0 0 0 0 0 0 
0.0136719 0.00417188 2.17503 2.53737e+21 1.68735e-05 5.65107 -0.0679956 2.92884 
0.0147656 0.00417188 2.01241 2.4332e+21 1.61808e-05 1.69989 1.65849 2.99763 
0.0136719 0.00426563 1.97274 2.56166e+21 1.7035e-05 -2.7786 -5.456 -4.27059 
0.0147656 0.00426563 2.02109 2.6126e+21 1.73738e-05 -1.04518 3.56298 -0.499252 
0.00710937 0.00604688 1.94672 3.14695e+21 2.09272e-05 -3.0674 6.56769 0.642878 
0.00710937 0.00632813 1.99474 3.07086e+21 2.04212e-05 -2.11675 6.38103 0.560458 
0.0147656 0.00604688 1.99003 2.42567e+21 1.61307e-05 -0.310672 -1.25496 -1.37934 
0.0147656 0.00614063 2.00148 2.39622e+21 1.59349e-05 0.196483 0.391712 -2.69745 
0.0158594 0.00604688 1.8726 2.32556e+21 1.5465e-05 4.7716 -2.1391 -0.0462727 
0.0169531 0.00604688 2.05261 2.54631e+21 1.6933e-05 3.20171 -2.78246 -1.01511 
0.0158594 0.00614063 2.00965 2.49733e+21 1.66072e-05 -0.379762 1.24957 -1.85043 
0.0169531 0.00623438 1.97067 2.49712e+21 1.66058e-05 1.58682 -1.30266 -0.926096 
0.0147656 0.00651563 1.93647 2.42744e+21 1.61425e-05 -0.892596 -1.34475 2.26135 
0.0158594 0.00642188 2.07228 2.44596e+21 1.62656e-05 0.824979 -0.990827 -2.77551 
0.0169531 0.00642188 1.95418 2.3807e+21 1.58317e-05 2.5797 -2.47226 2.08103 
0.0136719 0.00679687 1.91291 2.35212e+21 1.56416e-05 0.777069 0.341938 -1.77361 
0.0147656 0.00679687 2.02567 2.36125e+21 1.57023e-05 1.66302 0.295925 4.4657 
0.0169531 0.00689062 2.07519 2.60619e+21 1.73311e-05 2.43134 -2.9091 1.41607 
0.00929687 0.00735937 1.79899 3.06093e+21 2.03552e-05 2.92964 3.80677 -1.7015 
0.0103906 0.00735937 0 0 0 0 0 0 
0.00929687 0.00745312 1.98377 3.12464e+21 2.07788e-05 -3.99047 -0.250561 4.97003 
0.0103906 0.00745312 0 0 0 0 0 0 
0.0136719 0.00726562 1.9755 2.49304e+21 1.65787e-05 -0.60405 0.288697 2.65558 
0.0147656 0.00726562 1.94533 2.40759e+21 1.60104e-05 -0.398007 -2.28827 -1.92412 
0.0136719 0.00735937 2.06878 2.46339e+21 1.63815e-05 -3.40879 -2.3451 0.545878 
0.0103906 0.00923437 0 0 0 0 0 0 
0.0103906 0.00932812 0 0 0 0 0 0 
0.00710937 0.0127031 2.01092 2.86216e+21 1.90334e-05 2.81034 -0.80334 3.50023 
0.00929687 0.0127031 1.92988 2.68377e+21 1.7847e-05 3.71973 -4.42752 0.804497 
0.0125781 0.0127031 2.04818 2.53948e+21 1.68875e-05 2.6366 0.76293 1.72495 
0.0147656 0.0127031 1.90715 2.47914e+21 1.64863e-05 -0.831832 -1.82858 -0.935602 
0.0158594 0.0127031 1.93912 2.49226e+21 1.65735e-05 5.14968 -3.78925 -0.801605 
0.0169531 0.0127031 1.95904 2.53948e+21 1.68875e-05 1.28803 -1.24332 -2.72539 
0.0246094 0.00304688 2.08737 2.44522e+21 1.62607e-05 2.80928 -0.455078 -3.56845 
0.0257031 0.00304688 2.07359 2.3739e+21 1.57864e-05 4.91338 6.0835 -3.86387 
0.0246094 0.00314063 1.82048 2.25361e+21 1.49865e-05 3.77892 2.09511 -1.28208 
0.0257031 0.00314063 2.08816 2.32775e+21 1.54795e-05 -0.0617365 0.83832 3.68385 
0.0180469 0.00435938 1.95847 2.26445e+21 1.50586e-05 2.53296 0.711977 4.79121 
0.0191406 0.00435938 1.96272 2.34991e+21 1.56269e-05 2.06456 -1.67616 -1.87503 
0.0180469 0.00445313 2.01116 2.41546e+21 1.60628e-05 0.416573 -0.770044 -1.43677 
0.0191406 0.00445313 2.16486 2.53396e+21 1.68509e-05 1.92348 -1.05027 0.437101 
0.0333594 0.00435938 1.95903 2.52081e+21 1.67634e-05 2.20439 -5.91934 2.17605 
0.0344531 0.00435938 1.98532 2.37839e+21 1.58163e-05 0.0655406 0.163899 0.313782 
0.0333594 0.00445313 2.04413 2.36666e+21 1.57383e-05 -1.72296 -0.852171 0.0869708 
0.0344531 0.00445313 2.08834 2.48865e+21 1.65495e-05 1.91811 2.97482 -0.98076 
0.0180469 0.00604688 2.01005 2.51038e+21 1.6694e-05 1.37154 1.10295 -0.889462 
0.0191406 0.00604688 2.09119 2.33583e+21 1.55333e-05 4.43988 -1.37208 -1.49363 
0.0180469 0.00614063 2.02781 2.43919e+21 1.62206e-05 1.9569 -1.06857 -0.173511 
0.0191406 0.00614063 1.98788 2.58327e+21 1.71787e-05 2.82895 1.71646 -0.238584 
0.0202344 0.00604688 1.97812 2.55915e+21 1.70183e-05 2.41242 -2.79173 0.939713 
0.0213281 0.00604688 2.08796 2.323e+21 1.54479e-05 0.736482 0.896861 0.34121 
0.0202344 0.00614063 2.00849 2.37347e+21 1.57836e-05 0.909861 -0.30556 -1.04854 
0.0180469 0.00623438 2.00001 2.56434e+21 1.70528e-05 3.62071 -1.04261 6.49594 
0.0191406 0.00623438 1.98619 2.38508e+21 1.58608e-05 4.06865 0.852831 0.710364 
0.0213281 0.00632813 2.04622 2.42824e+21 1.61478e-05 3.84788 -3.84363 0.422268 
0.0224219 0.00614063 1.94954 2.48721e+21 1.654e-05 1.68533 2.28997 -4.53904 
0.0246094 0.00604688 1.99797 2.50524e+21 1.66599e-05 4.06624 -2.92569 -1.60294 
0.0257031 0.00614063 2.00942 2.42655e+21 1.61366e-05 3.52653 -0.367589 -2.693 
0.0246094 0.00623438 1.98579 2.49214e+21 1.65727e-05 2.19415 -1.09826 0.90065 
0.0257031 0.00623438 2.07523 2.38259e+21 1.58442e-05 3.9565 -0.252713 1.00103 
0.0180469 0.00642188 2.06102 2.41937e+21 1.60888e-05 1.53794 -0.244327 3.03449 
0.0180469 0.00651563 2.02861 2.48223e+21 1.65068e-05 3.264 -0.463809 -0.904138 
0.0191406 0.00651563 1.92465 2.61802e+21 1.74098e-05 1.85184 4.15122 -1.81923 
0.0202344 0.00642188 2.00936 2.43629e+21 1.62013e-05 2.48579 -1.64877 -0.111349 
0.0191406 0.00660938 2.01097 2.44233e+21 1.62415e-05 0.796208 -1.23719 -1.72278 
0.0180469 0.00670313 1.9277 2.42206e+21 1.61067e-05 0.629576 4.07841 -2.40099 
0.0213281 0.00660938 2.06556 2.4024e+21 1.5976e-05 2.40122 0.335787 2.00077 
0.0235156 0.00642188 1.94814 2.48463e+21 1.65228e-05 1.23279 -1.33117 -0.747348 
0.0224219 0.00651563 1.99773 2.42506e+21 1.61266e-05 2.56044 1.41632 2.61106 
0.0257031 0.00642188 1.95136 2.49672e+21 1.66032e-05 3.01484 -0.696707 -0.59945 
0.0246094 0.00651563 1.96965 2.51558e+21 1.67286e-05 2.80201 1.42703 -4.71065 
0.0278906 0.00623438 2.03253 2.42741e+21 1.61423e-05 -0.91121 0.326002 0.770143 
0.0267969 0.00632813 1.90853 2.29088e+21 1.52344e-05 3.2805 -0.207558 2.30176 
0.0278906 0.00632813 2.06947 2.30069e+21 1.52996e-05 -0.592704 3.27034 3.22753 
0.0311719 0.00604688 2.02399 2.53604e+21 1.68647e-05 0.997397 0.81196 -1.03594 
0.0322656 0.00604688 2.02001 2.4077e+21 1.60112e-05 1.27239 2.74361 0.680727 
0.0333594 0.00604688 2.00049 2.48471e+21 1.65233e-05 4.81054 -1.04209 2.5248 
0.0344531 0.00604688 2.041 2.43594e+21 1.6199e-05 4.73892 -1.92007 1.46983 
0.0333594 0.00614063 1.91506 2.30522e+21 1.53297e-05 -0.0927999 -2.94875 -0.0231972 
0.0322656 0.00632813 1.96696 2.42333e+21 1.61151e-05 -1.132 3.68593 -3.10866 
0.0333594 0.00623438 1.92957 2.54193e+21 1.69038e-05 -0.24322 -0.42492 1.52753 
0.0344531 0.00623438 1.99176 2.50708e+21 1.6672e-05 1.36118 -0.778556 0.164348 
0.0344531 0.00632813 1.96666 2.43069e+21 1.61641e-05 -0.208764 1.52365 0.853099 
0.0289844 0.00660938 2.06671 2.57384e+21 1.7116e-05 -1.48796 -1.98534 -1.42996 
0.0300781 0.00660938 2.00459 2.44233e+21 1.62415e-05 -1.4342 -2.54875 -2.7866 
0.0289844 0.00670313 1.99794 2.35954e+21 1.5691e-05 0.969662 -1.26807 -0.37439 
0.0322656 0.00642188 1.99856 2.4798e+21 1.64907e-05 3.73314 -1.10857 -0.710162 
0.0311719 0.00651563 2.01106 2.50367e+21 1.66494e-05 0.207404 -3.86878 -2.09256 
0.0344531 0.00642188 2.02023 2.57648e+21 1.71336e-05 2.7568 -1.01468 1.00988 
0.0344531 0.00651563 1.98204 2.37503e+21 1.5794e-05 -0.367324 -2.26728 1.43825 
0.0311719 0.00660938 1.99988 2.35074e+21 1.56324e-05 1.49114 -0.998958 -2.49111 
0.0322656 0.00660938 2.01339 2.56914e+21 1.70848e-05 3.06443 1.73575 -0.243492 
0.0322656 0.00670313 1.98091 2.41743e+21 1.60759e-05 0.657819 1.17555 1.37257 
0.0180469 0.00689062 2.0142 2.51609e+21 1.6732e-05 0.0646678 -0.13575 -0.766346 
0.0235156 0.00679687 2.02429 2.45488e+21 1.63249e-05 2.38882 -2.06484 1.37273 
0.0224219 0.00689062 1.99393 2.3922e+21 1.59081e-05 1.0662 2.93125 1.44944 
0.0257031 0.00698437 2.07304 2.40009e+21 1.59606e-05 0.373332 5.43556 2.38437 
0.0180469 0.00717187 2.01905 2.50831e+21 1.66803e-05 0.0527975 -2.41734 0.843502 
0.0213281 0.00726562 1.99142 2.50372e+21 1.66497e-05 2.10656 -0.803077 1.55419 
0.0235156 0.00745312 2.03214 2.44281e+21 1.62447e-05 2.77161 3.03434 -1.57751 
0.0246094 0.00745312 1.99072 2.43865e+21 1.6217e-05 -1.26737 2.14473 -0.790222 
0.0267969 0.00679687 1.98346 2.51197e+21 1.67046e-05 0.503812 0.33536 2.93302 
0.0300781 0.00679687 1.987 2.51425e+21 1.67198e-05 2.57765 -1.96839 -1.43812 
0.0300781 0.00689062 2.03448 2.37868e+21 1.58182e-05 5.46191 2.70592 1.27331 
0.0311719 0.00679687 2.02098 2.50055e+21 1.66287e-05 3.42784 -0.116502 1.60099 
0.0311719 0.00707812 1.99849 2.65118e+21 1.76303e-05 1.63577 -2.56678 0.273663 
0.0300781 0.00717187 2.04413 2.4607e+21 1.63637e-05 1.91887 0.453831 1.50352 
0.0289844 0.00726562 1.86095 2.54644e+21 1.69339e-05 3.72352 1.4789 -1.28846 
0.0289844 0.00735937 2.02097 2.49291e+21 1.65779e-05 0.0759934 -0.796103 0.390635 
0.0300781 0.00735937 1.98136 2.50979e+21 1.66901e-05 2.69403 0.630365 3.21133 
0.0322656 0.00726562 2.01667 2.367e+21 1.57405e-05 3.35248 0.477163 -0.915735 
0.0333594 0.00745312 1.97021 2.37201e+21 1.57739e-05 -0.10616 0.415035 -2.86498 
0.0180469 0.0127031 1.98391 2.39781e+21 1.59455e-05 2.16079 2.14394 -0.121695 
0.0180469 0.0152344 0 0 0 0 0 0 
0.0180469 0.0153281 0 0 0 0 0 0 
0.0180469 0.0161719 0 0 0 0 0 0 
0.0180469 0.0162656 0 0 0 0 0 0 
0.0180469 0.0182344 0 0 0 0 0 0 
0.0180469 0.0183281 0 0 0 0 0 0 
0.0180469 0.0193594 0 0 0 0 0 0 
0.0180469 0.0194531 0 0 0 0 0 0 
0.0180469 0.0212344 0 0 0 0 0 0 
0.0180469 0.0213281 0 0 0 0 0 0 
0.0180469 0.0214219 0 0 0 0 0 0 
0.0180469 0.0215156 0 0 0 0 0 0 
0.0311719 0.0216094 2.03746 2.41563e+21 1.60639e-05 2.95984 -0.0217966 1.30081 
0.0311719 0.0217031 0 0 0 0 0 0 
0.0322656 0.0217031 0 0 0 0 0 0 
0.00492187 0.00154688 2.0754 1.04125e+22 6.9243e-05 11.4925 1.57656 1.04258 
0.00601562 0.00154688 1.87466 7.71103e+21 5.12784e-05 22.4204 3.16352 -1.68498 
0.00492187 0.00164063 0 0 0 0 0 0 
0.00601562 0.00164063 2.02039 3.35993e+21 2.23435e-05 14.6006 31.847 9.7854 
0.00710937 0.00192187 2.02705 3.30316e+21 2.1966e-05 17.2913 24.038 -2.09809 
0.00820312 0.00192187 1.91625 4.12692e+21 2.7444e-05 8.60887 26.1279 -0.866737 
0.00710937 0.00201563 1.87942 3.27273e+21 2.17636e-05 14.9698 23.8449 1.87253 
0.00820312 0.00201563 1.95143 4.00428e+21 2.66285e-05 5.58739 22.426 3.43622 
0.00710937 0.00210938 1.95056 3.48783e+21 2.31941e-05 1.21042 21.4964 1.37945 
0.00820312 0.00210938 1.90091 3.61292e+21 2.40259e-05 4.98507 15.9154 0.669559 
0.00710937 0.00220313 2.12776 3.431e+21 2.28161e-05 8.2117 17.5365 -3.29804 
0.00820312 0.00220313 1.8499 3.86075e+21 2.5674e-05 5.89411 20.2393 -2.81035 
0.00710937 0.00267187 1.96973 3.38675e+21 2.25219e-05 0.897672 14.4357 -0.321065 
0.00820312 0.00267187 1.86987 3.66559e+21 2.43762e-05 2.25901 18.9287 -4.94097 
0.00710937 0.00276562 1.92107 3.58623e+21 2.38484e-05 0.827541 12.1534 0.607347 
0.00820312 0.00276562 2.06766 3.56378e+21 2.36992e-05 2.85885 20.9195 0.923143 
0.00710937 0.00464062 2.01335 3.32461e+21 2.21087e-05 3.51201 7.68364 -5.01347 
0.00820312 0.00464062 2.03213 3.47178e+21 2.30873e-05 -1.45041 6.15587 -0.496111 
0.00710937 0.00473437 1.99172 3.46532e+21 2.30444e-05 -1.51703 10.6875 3.14864 
0.00820312 0.00482812 2.00054 3.07977e+21 2.04804e-05 0.937332 10.852 -2.58576 
0.00820312 0.00492187 1.9708 3.33646e+21 2.21875e-05 0.331681 9.69221 -2.41292 
0.00820312 0.00510937 2.06977 3.39325e+21 2.25651e-05 0.200734 9.29515 -0.233857 
0.00710937 0.00520312 2.06726 3.12628e+21 2.07898e-05 -2.47385 6.89804 0.931061 
0.0158594 0.00454687 1.96495 2.37248e+21 1.5777e-05 2.36264 -4.96412 2.5988 
0.0169531 0.00454687 1.89888 2.42027e+21 1.60948e-05 3.26902 -3.02843 0.766486 
0.0158594 0.00464062 2.00936 2.51185e+21 1.67038e-05 1.75349 1.04644 -2.2134 
0.0169531 0.00464062 1.91208 2.48844e+21 1.65481e-05 2.46148 -4.69952 -0.717682 
0.0136719 0.00510937 2.09322 2.49406e+21 1.65855e-05 1.66842 2.01093 -1.08276 
0.0147656 0.00510937 1.94459 2.32698e+21 1.54744e-05 0.234019 2.05851 -2.28573 
0.0136719 0.00520312 1.98739 2.51176e+21 1.67032e-05 1.56053 -1.52582 0.837048 
0.0147656 0.00520312 1.96495 2.35664e+21 1.56717e-05 -0.246812 0.375005 4.19161 
0.0158594 0.00510937 1.94227 2.53355e+21 1.68481e-05 2.07215 -0.748417 0.591365 
0.0158594 0.00520312 1.97165 2.49386e+21 1.65842e-05 -1.85114 -1.01192 -0.164154 
0.0169531 0.00520312 2.01815 2.38946e+21 1.58899e-05 2.84793 -1.81797 -1.97712 
0.0136719 0.00529687 2.03358 2.38526e+21 1.5862e-05 2.0784 -0.545641 -2.51622 
0.0147656 0.00529687 2.04241 2.37647e+21 1.58035e-05 3.8608 2.93756 -0.705529 
0.0136719 0.00539062 1.97267 2.32074e+21 1.54329e-05 0.0879409 -3.92414 0.914162 
0.0147656 0.00539062 2.01598 2.60004e+21 1.72902e-05 3.74522 -3.29948 1.25249 
0.0158594 0.00529687 2.04545 2.52298e+21 1.67778e-05 1.27388 -1.29102 1.47809 
0.0169531 0.00529687 1.96837 2.49661e+21 1.66025e-05 4.26489 3.15125 1.49423 
0.0158594 0.00539062 1.97835 2.577e+21 1.71371e-05 2.58964 -3.48542 0.148685 
0.0169531 0.00539062 2.01114 2.45607e+21 1.63329e-05 -0.675264 2.89498 -0.193739 
0.0136719 0.00585938 2.03593 2.46621e+21 1.64003e-05 1.87085 2.28355 0.552453 
0.0147656 0.00585938 2.03407 2.38144e+21 1.58366e-05 1.75727 -1.46154 -0.269625 
0.0136719 0.00595313 1.91773 2.41433e+21 1.60553e-05 -0.143647 -2.64999 2.06905 
0.0147656 0.00595313 1.99625 2.49255e+21 1.65754e-05 -1.38025 2.64552 0.00801292 
0.0147656 0.00764062 1.99175 2.5596e+21 1.70214e-05 -0.308395 1.84385 0.914518 
0.0169531 0.00764062 2.0114 2.4235e+21 1.61162e-05 4.2157 -2.87417 -2.98034 
0.0103906 0.00885938 0 0 0 0 0 0 
0.0103906 0.00895312 0 0 0 0 0 0 
0.0180469 0.00454687 2.10678 2.49878e+21 1.66169e-05 0.884263 1.79288 2.76173 
0.0191406 0.00454687 1.99236 2.51585e+21 1.67304e-05 1.63054 6.6036 1.29713 
0.0180469 0.00464062 2.02661 2.61888e+21 1.74156e-05 0.415976 1.13878 1.93953 