ITEM: TIMESTEP
500000
ITEM: NUMBER OF CELLS
39330
ITEM: BOX BOUNDS oo ao pp
0 0.12
0 0.03
-0.1 0.1
ITEM: CELLS xc yc f_out[1] f_out[2] f_out[3] f_out[4] f_out[5] f_out[6] 
0.003 0.00375 0 0 0 0 0 0 
0.003 0.00525 0 0 0 0 0 0 
0.003 0.00675 0 0 0 0 0 0 
0.003 0.00825 0 0 0 0 0 0 
0.003 0.00975 0 0 0 0 0 0 
0.003 0.01125 0 0 0 0 0 0 
0.003 0.01275 0 0 0 0 0 0 
0.003 0.01425 0 0 0 0 0 0 
0.003 0.01575 0 0 0 0 0 0 
0.003 0.01725 0 0 0 0 0 0 
0.003 0.01875 0 0 0 0 0 0 
0.003 0.02025 0 0 0 0 0 0 
0.003 0.02175 0 0 0 0 0 0 
0.003 0.02325 0 0 0 0 0 0 
0.027 0.02325 0 0 0 0 0 0 
0.003 0.02475 0 0 0 0 0 0 
0.027 0.02475 0 0 0 0 0 0 
0.003 0.02625 0 0 0 0 0 0 
0.027 0.02625 0 0 0 0 0 0 
0.003 0.02775 0 0 0 0 0 0 
0.027 0.02775 0 0 0 0 0 0 
0.003 0.02925 0 0 0 0 0 0 
0.027 0.02925 0 0 0 0 0 0 
0.009 0.01425 0 0 0 0 0 0 
0.009 0.01575 0 0 0 0 0 0 
0.009 0.01725 0 0 0 0 0 0 
0.009 0.01875 0 0 0 0 0 0 
0.009 0.02025 0 0 0 0 0 0 
0.009 0.02175 0 0 0 0 0 0 
0.009 0.02325 0 0 0 0 0 0 
0.009 0.02475 0 0 0 0 0 0 
0.009 0.02625 0 0 0 0 0 0 
0.009 0.02775 0 0 0 0 0 0 
0.009 0.02925 0 0 0 0 0 0 
0.015 0.01425 0 0 0 0 0 0 
0.015 0.01575 0 0 0 0 0 0 
0.015 0.01725 0 0 0 0 0 0 
0.015 0.01875 0 0 0 0 0 0 
0.015 0.02025 0 0 0 0 0 0 
0.015 0.02175 0 0 0 0 0 0 
0.015 0.02325 0 0 0 0 0 0 
0.015 0.02475 0 0 0 0 0 0 
0.015 0.02625 0 0 0 0 0 0 
0.015 0.02775 0 0 0 0 0 0 
0.015 0.02925 0 0 0 0 0 0 
0.021 0.02325 0 0 0 0 0 0 
0.021 0.02475 0 0 0 0 0 0 
0.021 0.02625 0 0 0 0 0 0 
0.021 0.02775 0 0 0 0 0 0 
0.021 0.02925 2.83802e-16 6.04577e+15 4.02044e-11 -105.456 9.31577 23.9174 
0.0015 0.000375 0 0 0 0 0 0 
0.0015 0.001125 0 0 0 0 0 0 
0.0015 0.001875 0 0 0 0 0 0 
0.0015 0.002625 0 0 0 0 0 0 
0.0045 0.002625 0 0 0 0 0 0 
0.0255 0.022125 0 0 0 0 0 0 
0.0285 0.022125 0 0 0 0 0 0 
0.0105 0.000375 2.0463 5.55207e+21 3.69213e-05 7.63381 5.60089 0.483902 
0.0075 0.013125 0 0 0 0 0 0 
0.0105 0.013125 0 0 0 0 0 0 
0.0135 0.013125 0 0 0 0 0 0 
0.0165 0.013125 0 0 0 0 0 0 
0.0195 0.022125 0 0 0 0 0 0 
0.0225 0.022125 0 0 0 0 0 0 
0.00375 0.0001875 1.96004 1.2981e+22 8.63239e-05 35.0511 -0.681618 -1.67547 
0.00525 0.0001875 1.8613 9.73321e+21 6.47258e-05 48.4883 2.98983 -3.7168 
0.00375 0.0020625 0 0 0 0 0 0 
0.00525 0.0020625 0 0 0 0 0 0 
0.00675 0.0001875 1.70947 6.35299e+21 4.22474e-05 58.0815 1.10516 1.47347 
0.00825 0.0001875 1.92519 5.37213e+21 3.57246e-05 31.8707 8.49962 -1.22816 
0.00825 0.0005625 1.90892 4.72828e+21 3.1443e-05 34.7237 5.6844 1.06443 
0.00975 0.0016875 1.97567 4.47487e+21 2.97579e-05 0.0944564 14.619 -1.58016 
0.01125 0.0016875 0 0 0 0 0 0 
0.01125 0.0020625 0 0 0 0 0 0 
0.01125 0.0024375 0 0 0 0 0 0 
0.01125 0.0028125 0 0 0 0 0 0 
0.01125 0.0031875 0 0 0 0 0 0 
0.01125 0.0035625 0 0 0 0 0 0 
0.01125 0.0039375 0 0 0 0 0 0 
0.01125 0.0043125 0 0 0 0 0 0 
0.01125 0.0046875 0 0 0 0 0 0 
0.01125 0.0050625 0 0 0 0 0 0 
0.01125 0.0054375 0 0 0 0 0 0 
0.01125 0.0058125 0 0 0 0 0 0 
0.01125 0.0061875 0 0 0 0 0 0 
0.01125 0.0065625 0 0 0 0 0 0 
0.01125 0.0069375 0 0 0 0 0 0 
0.01125 0.0073125 0 0 0 0 0 0 
0.01125 0.0076875 0 0 0 0 0 0 
0.01125 0.0080625 0 0 0 0 0 0 
0.01125 0.0084375 0 0 0 0 0 0 
0.01125 0.0088125 0 0 0 0 0 0 
0.01125 0.0091875 0 0 0 0 0 0 
0.01275 0.0024375 1.90359 2.4616e+21 1.63696e-05 2.96677 -2.58088 0.506694 
0.0135 0.000375 2.00019 2.52188e+21 1.67705e-05 0.188741 3.41001 3.65254 
0.01875 0.0009375 1.99788 2.39935e+21 1.59557e-05 0.468105 -2.88476 -2.09521 
0.02025 0.0009375 1.99269 2.42651e+21 1.61363e-05 5.18399 1.23484 -1.38374 
0.02175 0.0009375 2.04657 2.43255e+21 1.61764e-05 2.08826 -0.763705 3.90052 
0.02625 0.0009375 1.93323 2.43858e+21 1.62166e-05 3.57054 -0.0358835 0.992654 
0.02925 0.0009375 1.91167 2.32692e+21 1.5474e-05 3.22985 2.22368 -1.98663 
0.003375 0.00046875 1.88882 1.37877e+22 9.16883e-05 20.9935 -8.6943 3.36463 
0.004125 0.00046875 1.9204 1.45832e+22 9.69784e-05 36.4054 1.90171 -0.0436594 
0.003375 0.00065625 1.9464 1.30933e+22 8.70707e-05 27.848 -5.82632 0.995762 
0.004125 0.00065625 1.9246 1.2831e+22 8.53263e-05 30.582 -6.13737 -1.87003 
0.004875 0.00046875 1.86867 1.11789e+22 7.43394e-05 41.7883 -6.64717 2.14256 
0.005625 0.00046875 1.68145 9.05415e+21 6.02101e-05 47.2717 -2.1232 -1.96576 
0.004875 0.00065625 1.92611 1.14341e+22 7.60367e-05 48.4431 -2.41785 3.44988 
0.005625 0.00065625 1.87917 8.95067e+21 5.9522e-05 43.994 -1.62582 2.2774 
0.003375 0.00084375 1.90639 1.38901e+22 9.23691e-05 26.2924 -2.92097 -4.51174 
0.004125 0.00084375 1.84841 1.21661e+22 8.09045e-05 34.1724 -0.791826 1.39929 
0.004875 0.00084375 1.86542 9.96627e+21 6.62757e-05 38.7846 -1.24761 0.170738 
0.005625 0.00084375 1.76949 9.30901e+21 6.19049e-05 46.6014 0.296246 0.0389169 
0.005625 0.00103125 1.83427 8.99927e+21 5.98452e-05 39.1023 2.04291 4.74106 
0.005625 0.00121875 1.91766 8.48768e+21 5.64431e-05 37.0488 1.58912 0.423631 
0.005625 0.00140625 2.07297 8.82075e+21 5.8658e-05 25.5158 -0.672587 -0.506777 
0.025125 0.00421875 2.15028 2.47078e+21 1.64307e-05 2.14443 0.292726 2.44408 
0.024375 0.00440625 2.02557 2.47352e+21 1.64489e-05 2.28293 3.91641 2.75861 
0.027375 0.00421875 1.98012 2.62101e+21 1.74297e-05 -1.36282 2.43123 -1.91964 
0.027375 0.00440625 2.12451 2.5814e+21 1.71663e-05 3.64172 -0.561723 1.2439 
0.025125 0.00459375 2.00349 2.32082e+21 1.54334e-05 0.77731 -1.9874 -2.69966 
0.024375 0.00478125 1.94123 2.44048e+21 1.62292e-05 3.22097 1.14158 -1.62106 
0.026625 0.00496875 1.99587 2.40533e+21 1.59954e-05 1.62172 -3.44198 -0.645075 
0.026625 0.00515625 1.98227 2.35957e+21 1.56911e-05 0.778896 1.11395 -1.4664 
0.028875 0.00459375 2.01176 2.52531e+21 1.67933e-05 -0.8587 -0.116458 -2.36755 
0.029625 0.00459375 1.94139 2.56226e+21 1.7039e-05 1.67921 1.64514 -1.38114 
0.028875 0.00478125 2.03019 2.47598e+21 1.64653e-05 4.90101 1.22855 -0.337364 
0.024375 0.00553125 2.02678 2.41239e+21 1.60424e-05 1.24316 -3.17459 3.8674 
0.026625 0.00534375 2.00561 2.55634e+21 1.69997e-05 0.229568 0.959538 1.86847 
0.028125 0.00534375 1.93965 2.35726e+21 1.56757e-05 4.34398 5.39319 -5.22599 
0.028875 0.00534375 2.02753 2.64741e+21 1.76053e-05 1.21564 0.112667 -2.8336 
0.029625 0.00553125 1.90638 2.65793e+21 1.76752e-05 0.177853 -1.48573 0.478304 
0.024375 0.0216562 2.10902 2.53212e+21 1.68386e-05 0.227084 -0.172514 0.125297 
0.025125 0.0216562 2.12478 2.37833e+21 1.58159e-05 0.390915 0.718346 -2.47067 
0.025875 0.0216562 1.97563 2.46774e+21 1.64105e-05 2.33029 3.25324 0.335108 
0.026625 0.0216562 1.9382 2.45343e+21 1.63153e-05 -0.367671 0.929757 1.61926 
0.027375 0.0216562 2.00694 2.38191e+21 1.58397e-05 -2.9406 0.924261 -2.03805 
0.028125 0.0216562 2.07184 2.61795e+21 1.74094e-05 3.01559 2.16439 -1.12687 
0.029625 0.0216562 1.96474 2.50708e+21 1.66721e-05 1.53919 -2.40947 -2.96654 
0.006375 0.00121875 1.80782 6.04538e+21 4.02018e-05 44.4985 10.4634 0.602433 
0.007125 0.00121875 1.73012 4.96817e+21 3.30384e-05 49.1012 19.1142 3.5788 
0.006375 0.00140625 1.75796 6.05219e+21 4.02471e-05 42.4514 6.68025 -0.665926 
0.007125 0.00140625 1.77786 4.7323e+21 3.14698e-05 40.1004 19.8325 -4.44635 
0.007875 0.00159375 2.0913 4.4028e+21 2.92786e-05 16.8731 21.4815 2.09791 
0.008625 0.00159375 2.1166 4.06194e+21 2.70119e-05 11.2104 18.3674 0.739505 
0.007875 0.00178125 2.03399 3.97112e+21 2.64079e-05 14.6875 22.1252 1.38893 
0.008625 0.00178125 2.03556 4.33328e+21 2.88163e-05 13.3808 17.9395 -2.952 
0.006375 0.00196875 1.98817 2.86715e+21 1.90665e-05 0.798013 12.6741 3.06666 
0.007125 0.00196875 1.80205 3.62166e+21 2.4084e-05 13.7917 19.0258 3.47217 
0.006375 0.00215625 1.89871 3.18863e+21 2.12044e-05 1.27737 7.17765 4.72768 
0.007125 0.00215625 1.92229 3.56917e+21 2.3735e-05 8.66289 12.9161 0.946134 
0.007875 0.00196875 1.99366 3.92059e+21 2.60719e-05 13.8195 18.7818 -0.461371 
0.008625 0.00196875 2.04302 4.32874e+21 2.87862e-05 12.1177 17.6048 1.64827 
0.007875 0.00215625 1.84723 3.78962e+21 2.5201e-05 7.05139 16.8937 -1.50699 
0.008625 0.00215625 1.91354 3.99957e+21 2.65971e-05 7.53319 21.4593 2.04642 
0.006375 0.00234375 1.95646 2.91544e+21 1.93876e-05 10.8572 0.9745 5.50421 
0.007125 0.00234375 1.97149 3.24984e+21 2.16114e-05 2.30991 15.2137 -1.68278 
0.006375 0.00253125 1.95195 3.03482e+21 2.01815e-05 0.501989 3.81359 -6.60118 
0.007875 0.00234375 1.96145 3.65063e+21 2.42767e-05 4.74541 19.9944 -0.00788351 
0.008625 0.00234375 1.86105 3.74238e+21 2.48868e-05 1.06148 16.331 0.799261 
0.007875 0.00253125 2.02598 3.72897e+21 2.47976e-05 1.27823 18.3592 2.12832 
0.008625 0.00253125 1.89543 3.94806e+21 2.62546e-05 2.54818 17.6431 -0.886333 
0.007875 0.00271875 2.05482 3.59668e+21 2.39179e-05 1.95323 14.1041 -0.89584 
0.008625 0.00271875 2.01251 3.96301e+21 2.6354e-05 4.44063 16.1691 3.27117 
0.007875 0.00290625 1.94285 3.53599e+21 2.35143e-05 0.929169 13.6496 2.30453 
0.006375 0.00309375 2.0799 3.34729e+21 2.22595e-05 0.0235027 4.58028 1.36381 
0.007125 0.00309375 1.91394 3.32534e+21 2.21135e-05 2.53895 8.53441 4.17202 
0.006375 0.00328125 1.98088 3.30476e+21 2.19767e-05 6.49136 2.42095 4.99172 
0.007125 0.00328125 1.967 3.41471e+21 2.27078e-05 -3.41205 8.40508 1.55052 
0.007875 0.00309375 1.91018 3.63263e+21 2.4157e-05 -3.57763 14.6379 1.88568 
0.007875 0.00328125 1.95228 3.48024e+21 2.31436e-05 -2.25348 10.1119 4.60015 
0.008625 0.00328125 2.1277 3.32848e+21 2.21344e-05 -0.381963 13.6032 0.27849 
0.006375 0.00346875 2.00573 3.36472e+21 2.23754e-05 -2.4802 1.31767 -3.15823 
0.007875 0.00365625 1.93733 3.39569e+21 2.25814e-05 -3.53887 14.1051 -1.55652 
0.008625 0.00384375 2.04305 3.26244e+21 2.16952e-05 0.491684 10.112 2.72607 
0.006375 0.00421875 1.99024 3.32488e+21 2.21105e-05 -1.07735 6.40342 -1.00152 
0.006375 0.00440625 1.93017 3.05818e+21 2.03369e-05 0.812478 3.33212 2.55763 
0.006375 0.00459375 2.00632 3.33987e+21 2.22101e-05 -1.62417 3.11675 5.29176 
0.006375 0.00478125 1.95347 3.3021e+21 2.1959e-05 -4.51349 7.54876 1.01729 
0.006375 0.00496875 2.03665 3.05791e+21 2.03351e-05 -5.62718 3.49539 -0.403887 
0.006375 0.00515625 2.03155 3.19364e+21 2.12377e-05 0.559135 4.60005 5.48107 
0.006375 0.00553125 2.01233 3.36461e+21 2.23747e-05 5.2029 6.45836 -9.41662 
0.006375 0.00571875 2.00578 3.23946e+21 2.15424e-05 0.758907 5.89273 -0.192126 
0.006375 0.00590625 2.0378 3.21566e+21 2.13841e-05 -1.98545 3.92479 -1.96898 
0.006375 0.00609375 1.95404 2.99832e+21 1.99388e-05 0.435573 7.66203 0.298358 
0.006375 0.00646875 2.08146 3.39202e+21 2.2557e-05 2.54501 4.90646 -1.55473 
0.010125 0.00646875 0 0 0 0 0 0 
0.010125 0.00665625 0 0 0 0 0 0 
0.006375 0.00684375 1.96691 3.03252e+21 2.01663e-05 2.084 0.832082 -2.40512 
0.010125 0.00759375 0 0 0 0 0 0 
0.010125 0.00778125 0 0 0 0 0 0 
0.010125 0.00871875 0 0 0 0 0 0 
0.010125 0.00890625 0 0 0 0 0 0 
0.010125 0.00946875 1.95614 2.6128e+21 1.73751e-05 1.11695 3.67818 -0.74737 
0.010875 0.00946875 1.86148 2.66752e+21 1.7739e-05 -0.690859 1.10334 3.67879 
0.011625 0.00946875 1.96944 2.42129e+21 1.61015e-05 4.35986 2.6862 -2.17261 
0.013875 0.00384375 1.89822 2.35555e+21 1.56644e-05 -3.32438 0.868345 0.177854 
0.014625 0.00384375 2.03359 2.46744e+21 1.64085e-05 0.066174 -2.82892 3.14926 
0.013875 0.00403125 2.07427 2.48463e+21 1.65228e-05 0.972304 -0.182405 -0.743548 
0.014625 0.00403125 1.91365 2.44532e+21 1.62614e-05 1.07731 0.441653 -2.66764 
0.015375 0.00421875 2.05737 2.45468e+21 1.63236e-05 2.11588 0.860939 0.393761 
0.016125 0.00421875 1.8877 2.4976e+21 1.66091e-05 0.93515 -1.31993 -1.73069 
0.015375 0.00440625 2.00575 2.59424e+21 1.72517e-05 -2.57216 -1.28342 -0.867424 
0.013875 0.00459375 2.00166 2.40458e+21 1.59905e-05 -0.275819 -1.36952 -0.473152 
0.014625 0.00459375 2.01658 2.51299e+21 1.67114e-05 1.15806 2.33792 -3.01774 
0.013875 0.00478125 2.03343 2.46178e+21 1.63708e-05 2.53363 -0.338185 1.06285 
0.016875 0.00515625 1.96744 2.55272e+21 1.69756e-05 2.7314 -0.692473 1.16981 
0.014625 0.00571875 2.03833 2.38475e+21 1.58586e-05 2.99554 -1.65215 1.03249 
0.012375 0.00759375 1.92151 2.21324e+21 1.4718e-05 0.283742 3.70258 1.32973 
0.012375 0.00778125 2.49353 2.46535e+21 1.63946e-05 11.7889 -2.51501 3.59631 
0.012375 0.00834375 1.88301 2.88919e+21 1.92131e-05 7.01893 -3.02017 1.15142 
0.012375 0.00853125 1.8047 2.34811e+21 1.56149e-05 -7.64528 -0.538697 1.296 
0.012375 0.00909375 2.34539 2.2402e+21 1.48973e-05 -16.2429 2.03084 4.76905 
0.012375 0.00928125 2.02391 2.68881e+21 1.78806e-05 6.19681 5.32459 -4.71713 
0.012375 0.00946875 2.04306 2.62183e+21 1.74352e-05 1.32936 -3.1757 -1.87972 
0.018375 0.00346875 1.9506 2.60694e+21 1.73362e-05 1.51138 3.15778 0.243023 
0.019125 0.00346875 2.03613 2.5319e+21 1.68371e-05 0.656904 -0.171007 -0.524011 
0.018375 0.00365625 1.95001 2.44539e+21 1.62619e-05 1.69853 -2.82096 1.05972 
0.019125 0.00365625 2.00456 2.52278e+21 1.67765e-05 3.34094 0.508173 0.997732 
0.019875 0.00478125 1.96903 2.41917e+21 1.60875e-05 4.14715 0.894452 -0.221989 
0.019125 0.00515625 2.07491 2.41663e+21 1.60706e-05 2.40989 -1.38773 -0.563523 
0.022875 0.00496875 1.99946 2.51694e+21 1.67376e-05 1.73723 1.81229 -0.192054 
0.018375 0.0135938 0 0 0 0 0 0 
0.018375 0.0137813 0 0 0 0 0 0 
0.018375 0.0158438 0 0 0 0 0 0 
0.018375 0.0160313 0 0 0 0 0 0 
0.018375 0.0169687 0 0 0 0 0 0 
0.018375 0.0171562 0 0 0 0 0 0 
0.018375 0.0173437 0 0 0 0 0 0 
0.018375 0.0175312 0 0 0 0 0 0 
0.018375 0.0177187 0 0 0 0 0 0 
0.018375 0.0179062 0 0 0 0 0 0 
0.018375 0.0180937 0 0 0 0 0 0 
0.018375 0.0182812 0 0 0 0 0 0 
0.018375 0.0188437 0 0 0 0 0 0 
0.018375 0.0190312 0 0 0 0 0 0 
0.018375 0.0192187 0 0 0 0 0 0 
0.018375 0.0194062 0 0 0 0 0 0 
0.018375 0.0195938 0 0 0 0 0 0 
0.018375 0.0197812 0 0 0 0 0 0 
0.018375 0.0199687 0 0 0 0 0 0 
0.018375 0.0201562 0 0 0 0 0 0 
0.018375 0.0210937 0 0 0 0 0 0 
0.018375 0.0212812 0 0 0 0 0 0 
0.019875 0.0216562 2.00439 2.44986e+21 1.62916e-05 1.59669 -3.94752 6.44139 
0.020625 0.0216562 1.98686 2.45343e+21 1.63153e-05 3.30429 0.864409 3.37369 
0.021375 0.0216562 1.95908 2.64298e+21 1.75758e-05 -2.48098 0.931599 -2.89164 
0.022125 0.0216562 1.87305 2.58576e+21 1.71953e-05 -3.30412 -1.58869 0.322189 
0.022875 0.0216562 2.00252 2.51423e+21 1.67196e-05 1.31726 0.207467 2.59647 
0.023625 0.0216562 1.99633 2.46059e+21 1.63629e-05 -1.71644 1.74326 6.29166 
0.01275 0.0016875 2.01917 2.45217e+21 1.63069e-05 1.00681 0.755037 1.74156 
0.003375 0.00159375 1.91545 1.48796e+22 9.89496e-05 16.6222 -4.27063 -3.13392 
0.004125 0.00159375 1.95018 1.17053e+22 7.78404e-05 14.795 1.57271 -0.318469 
0.003375 0.00178125 0 0 0 0 0 0 
0.004125 0.00178125 0 0 0 0 0 0 
0.025875 0.00346875 1.98621 2.45033e+21 1.62947e-05 3.17499 0.479861 -2.06152 
0.026625 0.00346875 1.9611 2.37202e+21 1.5774e-05 2.14365 -2.04627 -1.03547 
0.025875 0.00365625 1.99532 2.47635e+21 1.64677e-05 3.26745 -2.54738 -0.772637 
0.026625 0.00365625 2.03364 2.63422e+21 1.75175e-05 4.30238 -3.79889 -0.975995 
0.028875 0.00309375 2.07437 2.45468e+21 1.63236e-05 -0.157067 0.944983 -1.79711 
0.029625 0.00309375 1.98801 2.44736e+21 1.6275e-05 2.7743 -1.6834 -2.18586 
0.028875 0.00328125 1.93184 2.40409e+21 1.59872e-05 2.21325 -1.00384 1.05776 
0.029625 0.00328125 2.0198 2.53861e+21 1.68818e-05 0.79521 -2.78508 2.17589 
0.027375 0.00346875 2.00471 2.32635e+21 1.54702e-05 -2.1716 1.40041 0.432287 
0.028125 0.00346875 2.05425 2.45686e+21 1.63381e-05 2.53923 0.851431 0.372461 
0.027375 0.00365625 2.0476 2.49802e+21 1.66118e-05 1.29024 0.606299 -0.0394888 
0.028125 0.00365625 1.91707 2.52588e+21 1.67971e-05 -1.09282 -1.24898 1.56179 
0.028875 0.00346875 2.10806 2.41444e+21 1.6056e-05 5.9144 2.64879 -3.47416 
0.029625 0.00346875 2.04298 2.56453e+21 1.70541e-05 1.22643 5.48603 1.46801 
0.028875 0.00365625 1.88608 2.46397e+21 1.63854e-05 -2.0242 -0.547742 1.45424 
0.029625 0.00365625 1.9969 2.41444e+21 1.6056e-05 1.92708 1.16085 0.852462 
0.025875 0.00421875 1.97185 2.46273e+21 1.63771e-05 6.1408 0.652651 3.51984 
0.026625 0.00421875 2.12339 2.52175e+21 1.67696e-05 2.71151 -0.559794 -0.76027 
0.025875 0.00440625 2.04824 2.47608e+21 1.6466e-05 -0.491779 0.383111 -2.16973 
0.026625 0.00440625 1.97706 2.41958e+21 1.60902e-05 2.49615 2.03862 1.5724 
0.027375 0.00403125 1.9921 2.38356e+21 1.58507e-05 0.0895964 -2.26245 2.25578 
0.028125 0.00403125 1.98616 2.50428e+21 1.66535e-05 6.68636 1.30633 0.0643514 
0.028875 0.00421875 2.0763 2.44395e+21 1.62523e-05 3.60429 -4.71781 2.50782 
0.029625 0.00421875 2.06119 2.30445e+21 1.53246e-05 3.62917 1.88354 -0.259696 
0.028875 0.00440625 2.03039 2.54544e+21 1.69271e-05 3.85427 -1.59841 -1.60929 
0.029625 0.00440625 2.03841 2.51718e+21 1.67393e-05 1.24592 0.0803466 0.982015 
0.025875 0.00459375 1.97947 2.52777e+21 1.68097e-05 2.24762 2.34281 -0.646967 
0.025875 0.00478125 2.01674 2.59197e+21 1.72366e-05 3.09946 -1.5363 -0.828199 
0.026625 0.00478125 1.92027 2.31976e+21 1.54264e-05 1.0113 -0.791987 -1.43725 
0.024375 0.00496875 2.08509 2.48733e+21 1.65407e-05 7.61823 1.96056 -3.04127 
0.029625 0.00496875 2.05672 2.43494e+21 1.61923e-05 1.17609 0.00258724 -0.683793 
0.028875 0.00515625 1.93559 2.56809e+21 1.70778e-05 0.769026 -4.39147 -0.222721 
0.006375 0.00084375 1.77606 6.92139e+21 4.60273e-05 49.0372 7.6382 -3.61265 
0.007125 0.00084375 1.75717 5.9422e+21 3.95157e-05 54.1013 12.0418 -1.74162 
0.006375 0.00103125 1.74413 6.69458e+21 4.4519e-05 50.2937 9.7554 1.44039 
0.007125 0.00103125 1.80379 5.0374e+21 3.34987e-05 52.078 19.9682 2.56013 
0.006375 0.00159375 1.85909 4.79739e+21 3.19027e-05 28.1943 12.7582 -0.685405 
0.007125 0.00159375 1.83934 4.27498e+21 2.84286e-05 25.2883 21.9864 -2.78796 
0.006375 0.00178125 1.88617 3.33574e+21 2.21827e-05 6.99141 14.7941 -5.08396 
0.007125 0.00178125 1.86514 3.92664e+21 2.61122e-05 23.0753 23.8921 -1.13879 
0.006375 0.00384375 2.08546 3.27937e+21 2.18078e-05 -2.25031 4.19192 2.90678 
0.006375 0.00403125 1.93859 3.32161e+21 2.20887e-05 0.992368 0.00867965 -1.48198 
0.007125 0.00403125 2.05971 3.08543e+21 2.05181e-05 0.102772 8.36356 -2.23018 
0.010125 0.00571875 0 0 0 0 0 0 
0.010125 0.00590625 0 0 0 0 0 0 
0.010125 0.00721875 0 0 0 0 0 0 
0.010125 0.00740625 0 0 0 0 0 0 
0.010125 0.00909375 0 0 0 0 0 0 
0.010125 0.00928125 0 0 0 0 0 0 
0.013875 0.00309375 2.02466 2.41078e+21 1.60317e-05 0.483852 -2.3622 0.50912 
0.014625 0.00309375 2.04715 2.47297e+21 1.64453e-05 0.445036 0.840922 1.94879 
0.013875 0.00328125 2.09191 2.51447e+21 1.67212e-05 -1.57806 -2.83487 7.09458 
0.014625 0.00328125 2.02327 2.55241e+21 1.69735e-05 -1.53158 -1.6654 2.2907 
0.016875 0.00309375 1.90469 2.4876e+21 1.65426e-05 -1.46796 1.45076 0.411971 
0.017625 0.00309375 1.94642 2.38517e+21 1.58614e-05 2.37583 3.23045 0.411637 
0.016875 0.00328125 1.99027 2.47997e+21 1.64918e-05 0.254503 1.10252 -3.59613 
0.017625 0.00328125 2.09927 2.5938e+21 1.72488e-05 0.617247 0.436689 0.912782 
0.013875 0.00421875 2.04359 2.49224e+21 1.65734e-05 -1.373 0.384359 -0.902762 
0.013875 0.00440625 2.10113 2.55057e+21 1.69613e-05 1.09681 -3.21793 -1.2367 
0.014625 0.00440625 1.97467 2.36307e+21 1.57144e-05 2.76809 -1.99545 -1.23989 
0.013875 0.00515625 1.93459 2.60101e+21 1.72967e-05 1.68392 -0.661672 -0.455795 
0.015375 0.00459375 2.00165 2.48096e+21 1.64984e-05 3.65249 2.70009 -3.44086 
0.016125 0.00478125 1.95344 2.50202e+21 1.66384e-05 -2.15824 -0.289573 1.16886 
0.016875 0.00459375 1.97698 2.53516e+21 1.68588e-05 -0.155707 -0.40896 -0.10267 
0.017625 0.00459375 2.02131 2.37009e+21 1.57611e-05 -1.91375 -2.16689 -1.42493 
0.016875 0.00478125 2.05666 2.42627e+21 1.61347e-05 -2.0783 -2.27951 -0.437086 
0.016125 0.00553125 1.93548 2.37761e+21 1.58111e-05 -1.58216 -2.8572 5.37399 
0.012375 0.00609375 1.89974 2.70231e+21 1.79704e-05 -13.9027 -2.40898 1.06556 
0.012375 0.00628125 2.0763 2.64868e+21 1.76137e-05 10.2736 6.12546 -6.7893 
0.012375 0.00871875 1.92668 2.41444e+21 1.6056e-05 -1.31577 -0.641834 2.07497 
0.012375 0.00890625 1.9626 2.34455e+21 1.55912e-05 -2.16812 -8.7372 -4.57655 
0.019875 0.00271875 1.94053 2.60593e+21 1.73294e-05 3.21643 2.40685 -1.05987 
0.020625 0.00271875 2.02011 2.31869e+21 1.54193e-05 2.43647 -0.592468 2.25922 
0.019875 0.00290625 2.12704 2.41833e+21 1.60819e-05 4.38661 1.85789 0.332935 
0.020625 0.00290625 1.96197 2.49622e+21 1.65999e-05 3.23885 -3.91725 4.74351 
0.022875 0.00346875 2.00867 2.50253e+21 1.66419e-05 1.24047 1.17593 -0.1678 
0.023625 0.00346875 1.94836 2.41118e+21 1.60343e-05 2.4026 2.20561 -0.139218 
0.022875 0.00365625 2.03197 2.59088e+21 1.72293e-05 3.41924 2.16004 -1.54993 
0.023625 0.00365625 2.05856 2.58469e+21 1.71882e-05 1.38349 0.865195 -1.81823 
0.018375 0.00403125 1.95098 2.46778e+21 1.64107e-05 4.35455 0.581015 -3.27599 
0.019125 0.00403125 1.9395 2.47059e+21 1.64294e-05 4.73082 -0.242836 -1.39033 
0.022875 0.00384375 2.00612 2.44388e+21 1.62518e-05 1.64372 3.96142 -0.25602 
0.023625 0.00384375 2.02057 2.44388e+21 1.62518e-05 -0.105132 -2.57408 -0.581152 
0.022875 0.00403125 2.08103 2.53516e+21 1.68588e-05 2.75542 3.43874 1.22893 
0.023625 0.00403125 2.03224 2.52393e+21 1.67841e-05 -0.000631865 -3.53461 0.52341 
0.022875 0.00421875 2.01978 2.50029e+21 1.66269e-05 3.65559 -4.23336 1.37909 
0.023625 0.00421875 2.08896 2.47882e+21 1.64842e-05 4.53577 3.3575 -2.17444 
0.023625 0.00440625 2.02509 2.46838e+21 1.64147e-05 2.10644 -2.23129 -2.40602 
0.018375 0.00459375 2.09369 2.42183e+21 1.61052e-05 2.31129 -2.91888 -1.07123 
0.019125 0.00478125 1.98178 2.547e+21 1.69375e-05 4.06925 1.33961 1.7432 
0.019875 0.00515625 2.07237 2.37274e+21 1.57787e-05 2.11739 -2.31219 -0.951796 
0.022125 0.00459375 1.98457 2.37502e+21 1.57939e-05 1.96665 0.352002 0.497218 
0.023625 0.00459375 2.05056 2.42676e+21 1.61379e-05 0.346434 -0.86173 -1.27843 
0.018375 0.0128438 0 0 0 0 0 0 
0.018375 0.0130313 0 0 0 0 0 0 
0.018375 0.0132188 0 0 0 0 0 0 
0.018375 0.0134063 0 0 0 0 0 0 
0.018375 0.0139688 0 0 0 0 0 0 
0.018375 0.0141563 0 0 0 0 0 0 
0.018375 0.0147187 0 0 0 0 0 0 
0.018375 0.0149062 0 0 0 0 0 0 
0.018375 0.0162188 0 0 0 0 0 0 
0.018375 0.0164062 0 0 0 0 0 0 
0.018375 0.0165937 0 0 0 0 0 0 
0.018375 0.0167812 0 0 0 0 0 0 
0.018375 0.0184687 0 0 0 0 0 0 
0.018375 0.0186562 0 0 0 0 0 0 
0.018375 0.0203437 0 0 0 0 0 0 
0.018375 0.0205312 0 0 0 0 0 0 
0.018375 0.0207187 0 0 0 0 0 0 
0.018375 0.0209062 0 0 0 0 0 0 
0.01575 0.0009375 2.04989 2.46575e+21 1.63972e-05 0.813757 -3.40015 0.712521 
0.01725 0.0009375 1.99193 2.45669e+21 1.6337e-05 3.14328 5.26378 0.174044 
0.0039375 0.00135937 1.93104 1.16226e+22 7.72904e-05 22.0218 -1.19122 0.435278 
0.0043125 0.00135937 1.92248 1.03571e+22 6.88748e-05 18.0505 -6.31925 0.731047 
0.0039375 0.00145312 2.09944 1.14958e+22 7.64474e-05 21.02 0.667401 -0.468806 
0.0043125 0.00145312 2.10688 1.1527e+22 7.66546e-05 17.4493 1.88731 0.00160959 
0.0271875 0.00979687 2.02808 2.51841e+21 1.67474e-05 -3.31233 1.93374 -3.14164 
0.0275625 0.00979687 2.03471 2.49068e+21 1.65631e-05 3.75446 -0.678991 4.56708 
0.0271875 0.00989062 1.99572 2.31603e+21 1.54016e-05 -1.66381 2.57318 -3.35305 
0.0275625 0.00989062 2.01339 2.48081e+21 1.64974e-05 -0.0783155 0.489521 1.39356 
0.0264375 0.0111094 1.96921 2.3146e+21 1.53921e-05 2.60211 -1.2983 0.958312 
0.0268125 0.0111094 2.10402 2.43685e+21 1.62051e-05 2.43302 -0.607496 1.65356 
0.0264375 0.0112031 1.99943 2.54577e+21 1.69294e-05 7.43577 1.68226 -2.42118 
0.0268125 0.0112031 2.09269 2.42454e+21 1.61232e-05 -0.231848 0.54024 0.198751 
0.0279375 0.0109219 2.00612 2.51185e+21 1.67038e-05 0.819601 -2.3633 -1.73468 
0.0283125 0.0109219 1.96349 2.49941e+21 1.66211e-05 2.34632 -0.161009 0.817663 
0.0279375 0.0110156 1.95365 2.59321e+21 1.72449e-05 2.80028 3.44077 -2.8628 
0.0283125 0.0110156 2.01821 2.46992e+21 1.6425e-05 -0.663042 -5.28798 1.01092 
0.0279375 0.0111094 1.97408 2.44908e+21 1.62864e-05 -1.03453 2.18901 -0.242023 
0.0283125 0.0111094 2.0655 2.46538e+21 1.63948e-05 2.91425 4.53266 2.89362 
0.0279375 0.0112031 1.92391 2.43666e+21 1.62038e-05 -1.13937 0.412735 -1.67632 
0.0283125 0.0112031 1.98102 2.54577e+21 1.69294e-05 0.152258 -0.841937 -3.82446 
0.0241875 0.0114844 2.04232 2.49525e+21 1.65934e-05 -3.13979 1.12176 -1.37224 
0.0245625 0.0114844 1.96009 2.32575e+21 1.54662e-05 -3.26344 1.68333 -3.84566 
0.0241875 0.0115781 1.97513 2.41248e+21 1.6043e-05 0.183594 0.577325 1.51394 
0.0245625 0.0115781 1.98343 2.32646e+21 1.5471e-05 1.38514 -0.508881 0.6502 
0.0256875 0.0112969 2.0052 2.48457e+21 1.65224e-05 8.24419 -1.8148 0.922478 
0.0260625 0.0112969 1.89574 2.57674e+21 1.71353e-05 2.52324 5.82993 -2.59831 
0.0256875 0.0113906 2.01353 2.38066e+21 1.58314e-05 1.11537 -5.64573 -1.26226 
0.0260625 0.0113906 2.01732 2.41245e+21 1.60428e-05 -3.83443 1.67816 2.03803 
0.0286875 0.0112969 2.07248 2.35233e+21 1.5643e-05 -0.264648 1.12116 -2.01552 
0.0290625 0.0112969 2.06555 2.47655e+21 1.64691e-05 -2.0791 2.87963 -0.773952 
0.0286875 0.0113906 2.01383 2.27732e+21 1.51442e-05 -3.64014 0.892663 3.71752 
0.0290625 0.0113906 1.88028 2.57143e+21 1.71e-05 2.35741 -5.68527 -2.15689 
0.0271875 0.0116719 1.89626 2.40862e+21 1.60173e-05 7.87573 -1.72055 1.53421 
0.0275625 0.0116719 2.01903 2.33105e+21 1.55015e-05 -4.52315 4.11209 1.70359 
0.0271875 0.0117656 1.95725 2.47408e+21 1.64526e-05 -2.30231 4.09388 -0.867345 
0.0275625 0.0117656 1.92948 2.48562e+21 1.65294e-05 -3.27547 0.690676 -2.60751 
0.0286875 0.0116719 2.10172 2.47844e+21 1.64816e-05 4.0175 7.04232 0.291481 
0.0290625 0.0116719 1.94054 2.67625e+21 1.7797e-05 -0.0582066 -0.850053 -2.02515 
0.0286875 0.0117656 1.99902 2.30093e+21 1.53012e-05 7.37487 3.95733 -1.25547 
0.0290625 0.0117656 1.9836 2.55488e+21 1.699e-05 6.81038 -0.727122 -3.79711 
0.0264375 0.0124219 1.87146 2.54017e+21 1.68921e-05 1.79405 -3.97318 0.446146 
0.0268125 0.0124219 1.86488 2.51466e+21 1.67225e-05 7.01608 1.23867 3.98776 
0.0264375 0.0125156 2.0547 2.34752e+21 1.5611e-05 1.057 -2.27802 1.37998 
0.0268125 0.0125156 1.95625 2.66945e+21 1.77518e-05 2.77698 0.283114 3.85674 
0.0256875 0.0126094 2.06562 2.40546e+21 1.59963e-05 1.21908 -3.82738 -0.945448 
0.0260625 0.0126094 2.17222 2.40905e+21 1.60202e-05 -1.35137 0.331493 0.21618 
0.0256875 0.0127031 2.02414 2.48393e+21 1.65182e-05 3.04057 3.83288 -2.25468 
0.0260625 0.0127031 1.96421 2.36633e+21 1.57361e-05 0.0482111 3.11506 1.33567 
0.0279375 0.0122344 1.99137 2.63091e+21 1.74955e-05 5.06896 2.9594 0.041413 
0.0283125 0.0122344 2.08139 2.4866e+21 1.65359e-05 4.2953 -1.08699 -2.98691 
0.0279375 0.0123281 1.96403 2.58152e+21 1.71671e-05 2.04632 -0.811919 3.61847 
0.0283125 0.0123281 1.98934 2.46034e+21 1.63613e-05 0.334946 0.911615 -0.931668 
0.0249375 0.0129844 2.02628 2.33251e+21 1.55112e-05 2.17121 -0.257581 0.390392 
0.0253125 0.0129844 1.99253 2.6463e+21 1.75979e-05 -0.459109 1.83241 -0.350139 
0.0249375 0.0130781 2.10016 2.53386e+21 1.68502e-05 0.596747 -3.24394 4.78556 
0.0253125 0.0130781 2.12455 2.31925e+21 1.5423e-05 0.632612 -2.16732 -2.33253 
0.0241875 0.0133594 1.90416 2.51441e+21 1.67208e-05 -0.892676 0.539538 1.05045 
0.0245625 0.0133594 2.03383 2.38225e+21 1.58419e-05 3.19312 2.29484 -1.94989 
0.0241875 0.0134531 2.08042 2.44641e+21 1.62686e-05 -0.391624 0.250861 2.10421 
0.0245625 0.0134531 2.04299 2.37574e+21 1.57987e-05 2.74007 -2.32376 -2.58861 
0.0279375 0.0131719 1.90722 2.59488e+21 1.72559e-05 1.26864 -1.85685 -0.533959 
0.0283125 0.0131719 2.04011 2.33711e+21 1.55418e-05 2.85007 -0.324591 1.84391 
0.0279375 0.0132656 2.06653 2.46392e+21 1.63851e-05 2.12207 2.05228 3.81079 
0.0283125 0.0132656 2.05769 2.55265e+21 1.69751e-05 0.771899 -2.01834 3.27683 
0.0264375 0.0137344 2.07483 2.4095e+21 1.60231e-05 5.05118 2.08623 -0.00580491 
0.0268125 0.0137344 2.02473 2.58749e+21 1.72068e-05 -0.62287 0.663612 3.45346 
0.0264375 0.0138281 2.04856 2.61578e+21 1.73949e-05 4.04343 3.17209 -1.34373 
0.0268125 0.0138281 1.96906 2.58631e+21 1.7199e-05 1.36951 2.64818 0.722066 
0.0241875 0.0141094 2.06175 2.41284e+21 1.60454e-05 1.7816 3.13412 1.78039 
0.0245625 0.0141094 1.88194 2.42888e+21 1.6152e-05 1.88807 2.7795 4.18715 
0.0241875 0.0142031 1.95024 2.39372e+21 1.59182e-05 2.83492 -1.48894 -2.82894 
0.0245625 0.0142031 2.08567 2.43197e+21 1.61726e-05 0.73821 -1.84787 0.786586 
0.0256875 0.0141094 1.95852 2.32941e+21 1.54906e-05 -2.76584 0.123895 -3.54172 
0.0260625 0.0141094 2.02661 2.44492e+21 1.62587e-05 -1.24153 0.540471 3.26404 
0.0256875 0.0142031 2.04789 2.48297e+21 1.65117e-05 -3.74637 -1.31053 3.74779 
0.0260625 0.0142031 1.97924 2.34591e+21 1.56003e-05 6.92546 0.208328 3.03499 
0.0271875 0.0135469 1.97094 2.55312e+21 1.69783e-05 -0.483612 0.49903 1.06279 
0.0275625 0.0135469 2.02201 2.46624e+21 1.64005e-05 2.65067 0.39527 4.82918 
0.0271875 0.0136406 1.9191 2.49907e+21 1.66188e-05 -3.22431 3.76064 3.18104 
0.0275625 0.0136406 2.01568 2.50571e+21 1.6663e-05 0.250533 -4.69145 1.43674 
0.0271875 0.0137344 1.97605 2.60726e+21 1.73383e-05 -1.38402 0.482974 2.57637 
0.0271875 0.0138281 2.05544 2.58959e+21 1.72208e-05 2.59832 0.832135 0.83902 
0.0275625 0.0138281 2.00623 2.46518e+21 1.63935e-05 2.09128 -1.71395 -0.576727 
0.0279375 0.0137344 2.11403 2.56441e+21 1.70534e-05 -0.0875352 0.210598 2.38561 
0.0283125 0.0137344 2.05612 2.30072e+21 1.52998e-05 2.25531 3.26575 -0.886427 
0.0279375 0.0138281 1.96795 2.66161e+21 1.76997e-05 -2.02084 4.39684 5.4728 
0.0283125 0.0138281 1.88923 2.39316e+21 1.59145e-05 2.05469 -0.0991832 3.46392 
0.0286875 0.0137344 2.0183 2.47871e+21 1.64835e-05 -0.203765 -2.40866 -0.748355 
0.0290625 0.0137344 2.11646 2.22161e+21 1.47737e-05 0.785083 -3.17194 3.13967 
0.0286875 0.0138281 1.8989 2.60923e+21 1.73514e-05 0.345223 0.296256 -0.714519 
0.0290625 0.0138281 2.09848 2.44881e+21 1.62846e-05 0.544768 -2.37692 -2.78301 
0.0294375 0.0137344 1.99753 2.44246e+21 1.62423e-05 1.05627 3.32668 3.65781 
0.0298125 0.0137344 2.02619 2.5809e+21 1.7163e-05 2.5415 2.18849 -1.45965 
0.0294375 0.0138281 1.9664 2.49465e+21 1.65894e-05 1.23236 -2.46055 -0.491197 
0.0298125 0.0138281 2.04816 2.64852e+21 1.76126e-05 4.43711 -0.0795568 -1.26597 
0.0256875 0.0142969 1.90304 2.42236e+21 1.61087e-05 -0.473496 0.737438 -0.875376 
0.0260625 0.0142969 1.96104 2.44452e+21 1.62561e-05 1.11012 -1.88516 -1.98948 
0.0256875 0.0143906 1.91751 2.3531e+21 1.56481e-05 2.53837 1.69034 -0.728755 
0.0264375 0.0142969 2.0279 2.37802e+21 1.58139e-05 0.705967 2.15479 5.82953 
0.0268125 0.0142969 1.9324 2.57118e+21 1.70983e-05 -0.166022 -1.49791 -1.08577 