ITEM: TIMESTEP
500000
ITEM: NUMBER OF CELLS
42473
ITEM: BOX BOUNDS oo ao pp
0 0.12
0 0.03
-0.1 0.1
ITEM: CELLS xc yc f_out[1] f_out[2] f_out[3] f_out[4] f_out[5] f_out[6] 
0.003 0.00375 0 0 0 0 0 0 
0.003 0.00525 0 0 0 0 0 0 
0.003 0.00675 0 0 0 0 0 0 
0.003 0.00825 0 0 0 0 0 0 
0.003 0.00975 0 0 0 0 0 0 
0.003 0.01125 0 0 0 0 0 0 
0.003 0.01275 0 0 0 0 0 0 
0.003 0.01425 0 0 0 0 0 0 
0.003 0.01575 0 0 0 0 0 0 
0.003 0.01725 0 0 0 0 0 0 
0.003 0.01875 0 0 0 0 0 0 
0.003 0.02025 0 0 0 0 0 0 
0.003 0.02175 0 0 0 0 0 0 
0.003 0.02325 0 0 0 0 0 0 
0.027 0.02325 0 0 0 0 0 0 
0.003 0.02475 0 0 0 0 0 0 
0.027 0.02475 0 0 0 0 0 0 
0.003 0.02625 0 0 0 0 0 0 
0.027 0.02625 0 0 0 0 0 0 
0.003 0.02775 0 0 0 0 0 0 
0.027 0.02775 0 0 0 0 0 0 
0.003 0.02925 0 0 0 0 0 0 
0.027 0.02925 0 0 0 0 0 0 
0.009 0.01425 0 0 0 0 0 0 
0.009 0.01575 0 0 0 0 0 0 
0.009 0.01725 0 0 0 0 0 0 
0.009 0.01875 0 0 0 0 0 0 
0.009 0.02025 0 0 0 0 0 0 
0.009 0.02175 0 0 0 0 0 0 
0.009 0.02325 0 0 0 0 0 0 
0.009 0.02475 0 0 0 0 0 0 
0.009 0.02625 0 0 0 0 0 0 
0.009 0.02775 0 0 0 0 0 0 
0.009 0.02925 0 0 0 0 0 0 
0.015 0.01425 0 0 0 0 0 0 
0.015 0.01575 0 0 0 0 0 0 
0.015 0.01725 0 0 0 0 0 0 
0.015 0.01875 0 0 0 0 0 0 
0.015 0.02025 0 0 0 0 0 0 
0.015 0.02175 0 0 0 0 0 0 
0.015 0.02325 0 0 0 0 0 0 
0.015 0.02475 0 0 0 0 0 0 
0.015 0.02625 0 0 0 0 0 0 
0.015 0.02775 0 0 0 0 0 0 
0.015 0.02925 0 0 0 0 0 0 
0.021 0.02325 0 0 0 0 0 0 
0.021 0.02475 0 0 0 0 0 0 
0.021 0.02625 0 0 0 0 0 0 
0.021 0.02775 0 0 0 0 0 0 
0.021 0.02925 0 0 0 0 0 0 
0.0015 0.000375 0 0 0 0 0 0 
0.0015 0.001125 0 0 0 0 0 0 
0.0015 0.001875 0 0 0 0 0 0 
0.0015 0.002625 0 0 0 0 0 0 
0.0045 0.002625 0 0 0 0 0 0 
0.0255 0.022125 0 0 0 0 0 0 
0.0285 0.022125 0 0 0 0 0 0 
0.0105 0.000375 2.01616 5.60546e+21 3.72763e-05 3.57659 9.28509 -0.737551 
0.0075 0.013125 0 0 0 0 0 0 
0.0105 0.013125 0 0 0 0 0 0 
0.0135 0.013125 0 0 0 0 0 0 
0.0165 0.013125 0 0 0 0 0 0 
0.0195 0.022125 0 0 0 0 0 0 
0.0225 0.022125 0 0 0 0 0 0 
0.0135 0.000375 2.09973 2.48743e+21 1.65414e-05 -1.07542 -1.59024 3.52776 
0.00375 0.0001875 1.84886 1.32383e+22 8.80344e-05 34.9488 -2.02792 -1.91696 
0.00525 0.0001875 1.77571 9.80866e+21 6.52276e-05 47.575 1.37369 -1.16885 
0.00375 0.0020625 0 0 0 0 0 0 
0.00525 0.0020625 0 0 0 0 0 0 
0.00675 0.0001875 1.65322 6.36808e+21 4.23478e-05 55.7521 4.58341 -3.14773 
0.00825 0.0001875 2.01127 4.45162e+21 2.96033e-05 30.9219 4.01625 -3.83848 
0.00825 0.0005625 1.96329 4.67295e+21 3.10751e-05 27.3195 4.57299 -4.34805 
0.00975 0.0009375 1.93777 5.30436e+21 3.5274e-05 3.94159 10.2128 -0.0639866 
0.01125 0.0009375 0 0 0 0 0 0 
0.00975 0.0013125 1.97477 4.96026e+21 3.29857e-05 -0.314178 10.5017 -3.27966 
0.01125 0.0013125 0 0 0 0 0 0 
0.01125 0.0024375 0 0 0 0 0 0 
0.01125 0.0028125 0 0 0 0 0 0 
0.01125 0.0039375 0 0 0 0 0 0 
0.01125 0.0043125 0 0 0 0 0 0 
0.01125 0.0046875 0 0 0 0 0 0 
0.01125 0.0050625 0 0 0 0 0 0 
0.01125 0.0054375 0 0 0 0 0 0 
0.01125 0.0058125 0 0 0 0 0 0 
0.01125 0.0061875 0 0 0 0 0 0 
0.01125 0.0065625 0 0 0 0 0 0 
0.01125 0.0069375 0 0 0 0 0 0 
0.01125 0.0073125 0 0 0 0 0 0 
0.01125 0.0076875 0 0 0 0 0 0 
0.01125 0.0080625 0 0 0 0 0 0 
0.01125 0.0084375 0 0 0 0 0 0 
0.01125 0.0088125 0 0 0 0 0 0 
0.01125 0.0091875 0 0 0 0 0 0 
0.01275 0.0016875 2.0644 2.54019e+21 1.68923e-05 -0.325748 2.23102 -0.44825 
0.01275 0.0020625 2.02675 2.55677e+21 1.70025e-05 0.680641 2.68323 -0.256455 
0.01125 0.0031875 0 0 0 0 0 0 
0.01125 0.0035625 0 0 0 0 0 0 
0.02025 0.0009375 2.07989 2.56232e+21 1.70395e-05 3.82514 0.492544 0.369661 
0.003375 0.00046875 1.89012 1.3756e+22 9.14771e-05 25.5307 -6.00803 -5.44427 
0.004125 0.00046875 1.88292 1.27965e+22 8.50969e-05 31.7593 -0.19974 3.17108 
0.003375 0.00065625 1.93403 1.34564e+22 8.94852e-05 22.9006 -5.41228 1.33986 
0.004125 0.00065625 1.94735 1.23136e+22 8.18857e-05 35.1044 -1.32164 -1.78445 
0.004875 0.00046875 1.86482 1.1541e+22 7.67478e-05 42.1998 1.08665 -1.97188 
0.005625 0.00046875 1.73398 8.98171e+21 5.97284e-05 47.8417 3.11815 0.230149 
0.004875 0.00065625 1.76357 1.05545e+22 7.01878e-05 41.5363 0.911935 -0.818571 
0.005625 0.00065625 1.87715 9.08864e+21 6.04395e-05 47.7789 1.4107 -1.61545 
0.003375 0.00084375 1.91686 1.45784e+22 9.69465e-05 25.2992 -1.92239 -1.54641 
0.004125 0.00084375 1.90492 1.12674e+22 7.49281e-05 32.4272 -4.21155 -1.34091 
0.003375 0.00103125 1.92013 1.32708e+22 8.82505e-05 29.0272 -4.95906 4.40565 
0.004875 0.00084375 1.75533 1.05565e+22 7.02005e-05 41.4889 1.23751 -1.40747 
0.005625 0.00084375 1.83605 9.48338e+21 6.30645e-05 46.5014 0.255839 -1.46879 
0.005625 0.00103125 1.87599 8.8127e+21 5.86045e-05 41.4142 -1.64953 1.74939 
0.005625 0.00121875 1.93829 8.59912e+21 5.71841e-05 35.2549 -1.09524 0.972949 
0.025875 0.00346875 2.07761 2.53516e+21 1.68588e-05 -1.44229 -3.35285 -0.895721 
0.026625 0.00346875 1.91215 2.54821e+21 1.69456e-05 -0.40096 -2.30318 2.93698 
0.025875 0.00365625 1.98656 2.60636e+21 1.73323e-05 2.51514 -3.69428 0.801334 
0.026625 0.00365625 1.90707 2.56921e+21 1.70853e-05 4.56043 0.0995456 0.174188 
0.027375 0.00346875 1.96947 2.5058e+21 1.66635e-05 5.63416 0.404484 0.373399 
0.028125 0.00346875 2.04826 2.64283e+21 1.75748e-05 1.61077 -3.33003 0.232511 
0.027375 0.00365625 2.05975 2.65279e+21 1.7641e-05 3.00794 1.44715 -0.214024 
0.028125 0.00365625 1.94154 2.60945e+21 1.73529e-05 1.65513 2.64346 0.190187 
0.028875 0.00421875 2.02599 2.61296e+21 1.73762e-05 4.64453 -1.29435 4.00211 
0.029625 0.00440625 1.98507 2.51975e+21 1.67563e-05 3.12842 0.831843 -4.0179 
0.024375 0.00496875 1.98433 2.65133e+21 1.76313e-05 4.64802 2.77825 -0.439216 
0.026625 0.00496875 1.98628 2.77433e+21 1.84493e-05 1.53928 -0.338376 -1.62322 
0.024375 0.0216562 2.03075 2.70021e+21 1.79564e-05 -2.53149 -2.06965 2.47454 
0.025125 0.0216562 1.99652 2.70021e+21 1.79564e-05 1.21873 -3.62179 3.01695 
0.025875 0.0216562 2.02177 2.51423e+21 1.67196e-05 1.46921 4.45968 -0.835883 
0.026625 0.0216562 1.96417 2.79677e+21 1.85985e-05 -0.464684 -0.686098 3.5805 
0.027375 0.0216562 1.89289 2.47489e+21 1.6458e-05 0.642092 -0.407079 -0.3292 
0.028125 0.0216562 1.99686 2.59649e+21 1.72667e-05 3.6226 -1.0464 4.41996 
0.028875 0.0216562 1.94601 2.71094e+21 1.80277e-05 2.88954 2.89512 0.752428 
0.029625 0.0216562 2.0156 2.38548e+21 1.58635e-05 -1.55862 -1.07546 1.79719 
0.006375 0.00084375 1.63276 7.33721e+21 4.87925e-05 49.0048 5.05108 -3.46354 
0.007125 0.00084375 1.67334 5.07032e+21 3.37176e-05 49.0852 7.35033 -2.22467 
0.006375 0.00103125 1.74449 6.44216e+21 4.28404e-05 50.672 6.65121 -0.180156 
0.007125 0.00103125 1.90234 4.88375e+21 3.2477e-05 50.0761 18.4039 -0.676352 
0.007875 0.00159375 2.03456 4.33179e+21 2.88064e-05 23.58 23.5549 0.803207 
0.008625 0.00159375 1.94327 4.28208e+21 2.84758e-05 13.5217 11.7227 2.02311 
0.007875 0.00178125 2.02383 4.09184e+21 2.72107e-05 15.3746 18.9707 0.700962 
0.008625 0.00178125 2.0221 4.04101e+21 2.68727e-05 5.66407 14.8983 -1.56091 
0.007875 0.00196875 1.93651 3.84586e+21 2.55749e-05 16.8591 22.8306 -1.21206 
0.008625 0.00196875 2.05156 4.16203e+21 2.76775e-05 8.96337 21.4874 -2.26197 
0.007875 0.00215625 1.91458 3.93134e+21 2.61434e-05 8.30799 20.2143 1.99132 
0.008625 0.00215625 2.05971 4.13079e+21 2.74698e-05 -0.49732 16.0508 1.47648 
0.006375 0.00234375 1.90804 3.0603e+21 2.0351e-05 -3.85548 6.5686 -5.23962 
0.007125 0.00234375 2.02786 3.54923e+21 2.36024e-05 -0.784062 10.4533 -0.863422 
0.006375 0.00253125 1.93437 3.22764e+21 2.14638e-05 1.32323 -0.527057 -3.10152 
0.007125 0.00253125 1.99327 3.84969e+21 2.56004e-05 0.802691 11.0435 -1.12783 
0.007875 0.00234375 1.93524 3.90656e+21 2.59786e-05 11.8516 18.6982 -1.55024 
0.007875 0.00253125 2.02177 3.92123e+21 2.60762e-05 2.96014 17.3091 0.799994 
0.008625 0.00253125 2.0444 3.9257e+21 2.61059e-05 -0.410786 19.1513 -0.841547 
0.007875 0.00271875 1.98885 3.6841e+21 2.44993e-05 0.310517 16.2502 0.967808 
0.008625 0.00271875 1.91068 3.68826e+21 2.4527e-05 -4.01638 17.571 -0.353032 
0.007875 0.00290625 1.9436 3.50483e+21 2.33071e-05 -0.509536 9.8274 2.93531 
0.007875 0.00309375 2.06173 3.68385e+21 2.44976e-05 -2.81839 12.2819 0.720802 
0.008625 0.00309375 2.06762 3.62166e+21 2.4084e-05 -2.24981 17.668 0.0960313 
0.006375 0.00346875 1.85603 3.31578e+21 2.20499e-05 1.59697 1.96542 2.24648 
0.006375 0.00365625 2.03321 3.2444e+21 2.15753e-05 -1.15226 3.58034 0.207028 
0.008625 0.00346875 1.97268 3.58903e+21 2.38671e-05 1.0759 15.1847 -0.510609 
0.006375 0.00384375 2.0757 3.25728e+21 2.16609e-05 -6.53488 1.81197 1.3407 
0.007125 0.00384375 2.01926 3.42438e+21 2.27721e-05 -4.10902 9.00375 2.19978 
0.006375 0.00403125 1.90311 3.24791e+21 2.15986e-05 2.38852 7.66172 2.36235 
0.008625 0.00384375 2.0635 3.47738e+21 2.31246e-05 -5.89943 11.9284 -0.0980885 
0.006375 0.00421875 2.02152 3.07841e+21 2.04714e-05 1.83899 -1.43918 3.48837 
0.006375 0.00440625 2.04595 3.30862e+21 2.20023e-05 4.27957 3.05181 0.0776118 
0.006375 0.00459375 1.9844 3.39531e+21 2.25788e-05 -1.97202 5.52708 -4.46498 
0.006375 0.00478125 2.10304 3.29766e+21 2.19295e-05 -1.55448 2.31055 -0.893463 
0.006375 0.00496875 1.9501 3.35687e+21 2.23232e-05 -1.52248 10.0625 1.00774 
0.006375 0.00515625 2.09186 3.25538e+21 2.16483e-05 2.50216 4.12179 1.84371 
0.006375 0.00534375 1.84433 3.57003e+21 2.37407e-05 -1.85341 9.28121 3.74139 
0.006375 0.00553125 2.04608 3.1843e+21 2.11756e-05 -0.377642 3.18138 -0.538066 
0.006375 0.00571875 1.95131 3.25801e+21 2.16658e-05 -0.452138 4.95782 -1.50904 
0.006375 0.00590625 2.00324 3.35219e+21 2.22921e-05 0.822187 6.2155 2.3464 
0.010125 0.00571875 0 0 0 0 0 0 
0.010125 0.00590625 0 0 0 0 0 0 
0.006375 0.00609375 1.97795 3.2386e+21 2.15367e-05 -1.08619 7.18666 1.30077 
0.006375 0.00721875 1.91142 3.27772e+21 2.17968e-05 -3.25965 6.41479 0.674248 
0.006375 0.00740625 1.91526 3.04002e+21 2.02161e-05 -3.03518 0.931417 -5.02682 
0.010125 0.00721875 0 0 0 0 0 0 
0.010125 0.00740625 0 0 0 0 0 0 
0.010125 0.00796875 0 0 0 0 0 0 
0.010125 0.00815625 0 0 0 0 0 0 
0.010125 0.00834375 0 0 0 0 0 0 
0.010125 0.00853125 0 0 0 0 0 0 
0.010125 0.00909375 0 0 0 0 0 0 
0.010125 0.00928125 0 0 0 0 0 0 
0.010125 0.00946875 1.8663 2.81799e+21 1.87397e-05 -0.37793 3.61725 0.385281 
0.010875 0.00946875 1.97955 2.76327e+21 1.83758e-05 1.00047 -1.33123 -0.20531 
0.011625 0.00946875 2.00013 2.48968e+21 1.65564e-05 1.43489 6.22004 0.0335434 
0.013875 0.00346875 1.993 2.65588e+21 1.76616e-05 -0.986231 1.28947 2.51246 
0.014625 0.00346875 2.01377 2.55148e+21 1.69673e-05 -1.89838 -1.92312 -0.75799 
0.013875 0.00365625 2.02767 2.58469e+21 1.71882e-05 0.992786 0.822761 1.37082 
0.014625 0.00365625 2.08584 2.56612e+21 1.70647e-05 -1.99328 -1.20935 -0.620012 
0.015375 0.00346875 2.01582 2.5319e+21 1.68371e-05 0.848687 2.32225 -3.43173 
0.016125 0.00346875 2.00535 2.50906e+21 1.66852e-05 -2.26561 0.212351 1.41927 
0.015375 0.00365625 1.99823 2.86947e+21 1.9082e-05 0.846017 1.68042 -2.50633 
0.016125 0.00365625 2.05612 2.59707e+21 1.72705e-05 3.40617 -0.0761266 1.94486 
0.015375 0.00459375 1.9763 2.61154e+21 1.73667e-05 5.39108 -2.53738 2.04528 
0.015375 0.00478125 2.00745 2.547e+21 1.69375e-05 0.435908 1.13926 -0.854022 
0.016125 0.00478125 2.06903 2.61091e+21 1.73625e-05 3.10584 -3.461 0.262139 
0.015375 0.00496875 1.98597 2.66727e+21 1.77374e-05 -1.47422 -0.618439 -1.86692 
0.016125 0.00496875 2.0046 2.63766e+21 1.75404e-05 3.68311 -1.88777 -1.53732 
0.012375 0.00871875 1.96179 2.76492e+21 1.83867e-05 -1.46049 2.00144 10.3534 
0.012375 0.00890625 1.7566 2.74484e+21 1.82532e-05 -3.437 -4.26797 6.09858 
0.012375 0.00909375 1.76476 2.85626e+21 1.89941e-05 1.00196 -8.72113 -3.85995 
0.012375 0.00928125 2.02587 2.85343e+21 1.89753e-05 4.55074 -0.450988 -0.0641235 
0.012375 0.00946875 2.16568 2.67905e+21 1.78157e-05 0.986577 3.18774 1.93445 
0.019875 0.00346875 2.00544 2.54821e+21 1.69456e-05 0.763611 -0.0178521 0.722395 
0.020625 0.00346875 2.03387 2.68199e+21 1.78352e-05 2.09515 -1.20642 -1.65633 
0.019875 0.00365625 1.90363 2.47635e+21 1.64677e-05 0.16312 -1.95541 0.200739 
0.020625 0.00365625 1.98336 2.70541e+21 1.7991e-05 4.32948 1.06674 -2.17944 
0.019125 0.00421875 1.99972 2.5137e+21 1.67161e-05 1.96136 -2.15779 2.52238 
0.022875 0.00384375 1.9286 2.66766e+21 1.77399e-05 2.02783 -1.90421 1.31283 
0.023625 0.00384375 1.95956 2.70299e+21 1.79749e-05 4.86198 2.59532 -1.84624 
0.022875 0.00403125 1.90974 2.60254e+21 1.73069e-05 0.491617 0.65121 -1.46568 
0.023625 0.00403125 1.99976 2.53797e+21 1.68775e-05 3.6286 -3.74813 -1.95492 
0.021375 0.00421875 2.00712 2.65588e+21 1.76616e-05 1.98813 -2.18 2.31572 
0.022125 0.00421875 2.00816 2.50565e+21 1.66626e-05 5.71687 -2.94925 3.76764 
0.022875 0.00421875 1.88279 2.53248e+21 1.6841e-05 5.81401 -1.76583 -0.777095 
0.023625 0.00421875 2.0091 2.65052e+21 1.76259e-05 2.72184 1.87202 0.807065 
0.018375 0.00459375 1.92741 2.56473e+21 1.70554e-05 2.54798 2.34593 1.90595 
0.019125 0.00478125 1.96875 2.50202e+21 1.66384e-05 2.1516 -1.69536 -1.01383 
0.019875 0.00459375 1.96967 2.66327e+21 1.77108e-05 -0.528341 2.66804 4.16386 
0.022125 0.00459375 1.97122 2.49821e+21 1.66131e-05 3.01946 -0.00960254 0.742242 
0.018375 0.0128438 0 0 0 0 0 0 
0.018375 0.0130313 0 0 0 0 0 0 
0.018375 0.0154687 0 0 0 0 0 0 
0.018375 0.0156563 0 0 0 0 0 0 
0.018375 0.0169687 0 0 0 0 0 0 
0.018375 0.0171562 0 0 0 0 0 0 
0.018375 0.0177187 0 0 0 0 0 0 
0.018375 0.0179062 0 0 0 0 0 0 
0.018375 0.0180937 0 0 0 0 0 0 
0.018375 0.0182812 0 0 0 0 0 0 
0.018375 0.0188437 0 0 0 0 0 0 
0.018375 0.0190312 0 0 0 0 0 0 
0.018375 0.0199687 0 0 0 0 0 0 
0.018375 0.0201562 0 0 0 0 0 0 
0.018375 0.0203437 0 0 0 0 0 0 
0.018375 0.0205312 0 0 0 0 0 0 
0.018375 0.0207187 0 0 0 0 0 0 
0.018375 0.0209062 0 0 0 0 0 0 
0.018375 0.0210937 0 0 0 0 0 0 
0.018375 0.0212812 0 0 0 0 0 0 
0.019875 0.0216562 1.99975 2.54642e+21 1.69337e-05 2.09663 -1.88108 1.83125 
0.020625 0.0216562 2.03473 2.55e+21 1.69575e-05 -3.94019 -2.02239 1.51356 
0.021375 0.0216562 1.98292 2.53569e+21 1.68623e-05 1.9468 3.2435 1.64578 
0.022125 0.0216562 1.91775 2.70736e+21 1.80039e-05 1.40201 5.00801 2.37005 
0.022875 0.0216562 1.93153 2.41052e+21 1.60299e-05 0.560259 4.15273 -0.391669 
0.023625 0.0216562 2.07797 2.52139e+21 1.67672e-05 0.162654 -1.3006 1.08729 
0.02925 0.0009375 2.20985 2.46575e+21 1.63972e-05 6.81226 -0.494678 0.924592 
0.01575 0.0009375 2.02224 2.61665e+21 1.74007e-05 1.72266 -3.82141 0.703598 
0.024375 0.00346875 1.99164 2.58084e+21 1.71626e-05 3.66874 -0.329882 -2.69736 
0.025125 0.00346875 2.10936 2.59715e+21 1.72711e-05 4.39533 0.256835 3.22273 
0.024375 0.00365625 1.94917 2.51659e+21 1.67353e-05 -2.6307 1.80416 3.51436 
0.025125 0.00365625 2.04023 2.54754e+21 1.69412e-05 0.681371 -0.297171 1.42316 
0.024375 0.00440625 2.09402 2.60708e+21 1.73371e-05 4.62899 -3.3375 -1.10372 
0.025125 0.00440625 1.90193 2.59938e+21 1.72858e-05 2.7486 1.44596 -0.971456 
0.007125 0.00121875 1.87001 4.64315e+21 3.0877e-05 43.6114 20.9388 -0.184744 
0.006375 0.00140625 1.74497 5.84294e+21 3.88556e-05 39.0862 11.8843 0.510911 
0.007125 0.00140625 1.8345 4.77254e+21 3.17374e-05 42.9254 21.2319 4.45092 
0.007875 0.00121875 2.01611 4.26241e+21 2.83451e-05 28.4931 16.5914 -6.58314 
0.008625 0.00121875 2.0401 4.57815e+21 3.04447e-05 16.432 14.8505 2.37127 
0.007875 0.00140625 1.87719 4.62768e+21 3.0774e-05 26.3606 22.2421 2.54427 
0.008625 0.00140625 2.10795 4.13674e+21 2.75093e-05 16.7868 20.0652 -0.914544 
0.006375 0.00159375 1.90738 5.06234e+21 3.36645e-05 22.3055 9.77127 3.26065 
0.007125 0.00159375 1.79628 3.99803e+21 2.65869e-05 29.5587 21.7212 2.13366 
0.006375 0.00178125 2.11817 3.28809e+21 2.18658e-05 12.946 15.284 -1.18745 
0.007125 0.00178125 1.8693 3.91393e+21 2.60277e-05 18.6192 19.5447 0.826639 
0.006375 0.00309375 2.08043 3.16895e+21 2.10735e-05 -3.3972 -0.727486 -2.52503 
0.007125 0.00309375 1.99715 3.38022e+21 2.24784e-05 -6.17305 12.1759 0.2495 
0.006375 0.00328125 1.95777 3.36297e+21 2.23637e-05 4.36804 4.55009 1.38712 
0.009375 0.00459375 2.03199 3.37134e+21 2.24194e-05 0.129027 10.2941 0.474085 
0.010125 0.00459375 0 0 0 0 0 0 
0.009375 0.00478125 1.98997 3.5205e+21 2.34113e-05 -0.588533 3.92541 0.40304 
0.010125 0.00478125 0 0 0 0 0 0 
0.010125 0.00534375 0 0 0 0 0 0 
0.010125 0.00553125 0 0 0 0 0 0 
0.010125 0.00609375 0 0 0 0 0 0 
0.010125 0.00628125 0 0 0 0 0 0 
0.010125 0.00684375 0 0 0 0 0 0 
0.010125 0.00703125 0 0 0 0 0 0 
0.010125 0.00871875 0 0 0 0 0 0 
0.010125 0.00890625 0 0 0 0 0 0 
0.016875 0.00346875 2.0935 2.51558e+21 1.67286e-05 -0.156661 -1.0222 -2.47808 
0.017625 0.00346875 2.0448 2.7505e+21 1.82908e-05 3.6207 -2.04664 -1.08163 
0.017625 0.00365625 1.99939 2.63422e+21 1.75175e-05 3.16568 0.412431 -1.77483 
0.015375 0.00384375 1.98896 2.57933e+21 1.71525e-05 2.79703 2.21845 -2.06305 
0.016125 0.00384375 1.99969 2.52338e+21 1.67805e-05 2.65962 -0.925888 2.05639 
0.016125 0.00403125 1.99535 2.6615e+21 1.7699e-05 0.832496 1.70508 3.38151 
0.016875 0.00384375 1.97036 2.62055e+21 1.74267e-05 2.57623 -2.53096 -1.19999 
0.017625 0.00384375 1.98115 2.55283e+21 1.69763e-05 3.30011 -0.23377 1.21665 
0.017625 0.00403125 1.96546 2.52393e+21 1.67841e-05 0.716635 -4.60788 0.696144 
0.016125 0.00421875 2.0197 2.43054e+21 1.61631e-05 2.12657 1.54332 1.17185 
0.015375 0.00440625 2.03521 2.55057e+21 1.69613e-05 3.29603 -5.35326 -2.54815 
0.014625 0.00459375 1.96545 2.62632e+21 1.7465e-05 4.73371 -1.33141 -0.86744 
0.014625 0.00478125 1.99043 2.56593e+21 1.70635e-05 1.00665 1.23714 2.01149 
0.016875 0.00459375 1.99891 2.55241e+21 1.69735e-05 1.52504 -2.91279 -0.073104 
0.012375 0.00609375 2.30331 2.89733e+21 1.92672e-05 11.8083 -1.12905 6.47663 
0.012375 0.00628125 2.11439 2.48651e+21 1.65353e-05 0.31614 -0.957405 -5.55318 
0.012375 0.00646875 2.19275 2.33571e+21 1.55325e-05 8.45929 5.02829 -14.9415 
0.012375 0.00665625 1.51648 2.7545e+21 1.83174e-05 9.62162 0.363044 0.353979 
0.012375 0.00684375 1.95088 2.55501e+21 1.69908e-05 -7.59112 1.47685 1.20905 
0.012375 0.00703125 1.83921 2.53516e+21 1.68588e-05 -12.89 -9.78244 4.63058 
0.012375 0.00721875 2.09209 2.65745e+21 1.76721e-05 0.5406 -6.42718 -4.78467 
0.012375 0.00740625 2.12431 2.6131e+21 1.73771e-05 -2.06885 -0.908143 -12.1572 
0.012375 0.00759375 2.11327 2.86156e+21 1.90294e-05 -0.75853 1.98261 -0.336878 
0.012375 0.00778125 1.83351 2.42171e+21 1.61044e-05 -8.60929 2.73747 3.13901 
0.012375 0.00796875 1.96488 2.51386e+21 1.67172e-05 -8.47076 1.02499 -2.31187 
0.012375 0.00815625 1.87759 2.87235e+21 1.91011e-05 0.713521 9.02121 -11.6877 
0.012375 0.00834375 1.96493 2.29914e+21 1.52893e-05 -6.63141 0.679723 -3.0388 
0.012375 0.00853125 1.92255 2.28841e+21 1.52179e-05 -1.12808 5.15885 16.463 
0.018375 0.00271875 2.02519 2.44358e+21 1.62498e-05 1.6972 -1.29219 -1.76739 
0.019125 0.00271875 2.0858 2.65588e+21 1.76616e-05 4.69875 1.04026 3.21743 
0.018375 0.00290625 1.96409 2.77661e+21 1.84644e-05 3.51836 -0.777134 -0.853511 
0.019125 0.00290625 2.08345 2.70651e+21 1.79983e-05 6.65956 6.20126 1.68135 
0.018375 0.00346875 1.96988 2.55474e+21 1.6989e-05 0.336179 2.99914 -1.61769 
0.019125 0.00346875 2.02815 2.558e+21 1.70107e-05 -0.656613 -0.112522 -2.75583 
0.018375 0.00365625 2.02575 2.47944e+21 1.64883e-05 2.59252 1.1998 2.56912 
0.019125 0.00365625 2.0866 2.47016e+21 1.64265e-05 -1.89845 0.604782 -0.796352 
0.022875 0.00309375 2.05508 2.65223e+21 1.76373e-05 -3.02448 -4.35754 -1.77236 
0.023625 0.00309375 1.95386 2.6193e+21 1.74184e-05 0.35024 0.382451 0.339541 
0.022875 0.00328125 1.96313 2.73177e+21 1.81662e-05 0.729421 -3.92037 -6.94514 
0.023625 0.00328125 1.93718 2.49377e+21 1.65836e-05 3.14853 -0.0061688 0.0247989 
0.022875 0.00346875 2.02917 2.67872e+21 1.78135e-05 2.46367 -5.01148 -1.60989 
0.023625 0.00346875 2.05334 2.65915e+21 1.76833e-05 4.09041 0.622168 -3.13956 
0.022875 0.00365625 1.94309 2.61255e+21 1.73734e-05 2.41854 0.147456 1.44513 
0.023625 0.00365625 1.91997 2.67136e+21 1.77645e-05 6.24171 0.0887615 0.134928 
0.019875 0.00384375 1.85351 2.60877e+21 1.73483e-05 2.99523 -0.996638 -3.14109 
0.020625 0.00384375 1.97733 2.69711e+21 1.79358e-05 -0.296103 -2.34932 2.05042 
0.019875 0.00403125 1.97054 2.51551e+21 1.67281e-05 1.24719 -0.423395 1.51113 
0.020625 0.00403125 1.99646 2.56043e+21 1.70269e-05 1.49586 3.47557 0.396897 
0.020625 0.00421875 2.00346 2.44931e+21 1.62879e-05 1.87991 -1.95812 -3.64284 
0.019875 0.00440625 2.09474 2.58396e+21 1.71834e-05 4.29302 -0.206508 -1.31553 
0.019875 0.00515625 1.98318 2.48907e+21 1.65523e-05 0.998736 -0.574056 0.521343 
0.018375 0.0132188 0 0 0 0 0 0 
0.018375 0.0134063 0 0 0 0 0 0 
0.018375 0.0135938 0 0 0 0 0 0 
0.018375 0.0137813 0 0 0 0 0 0 
0.018375 0.0139688 0 0 0 0 0 0 
0.018375 0.0141563 0 0 0 0 0 0 
0.018375 0.0150937 0 0 0 0 0 0 
0.018375 0.0152812 0 0 0 0 0 0 
0.018375 0.0158438 0 0 0 0 0 0 
0.018375 0.0160313 0 0 0 0 0 0 
0.018375 0.0165937 0 0 0 0 0 0 
0.018375 0.0167812 0 0 0 0 0 0 
0.018375 0.0184687 0 0 0 0 0 0 
0.018375 0.0186562 0 0 0 0 0 0 
0.018375 0.0192187 0 0 0 0 0 0 
0.018375 0.0194062 0 0 0 0 0 0 
0.018375 0.0195938 0 0 0 0 0 0 
0.018375 0.0197812 0 0 0 0 0 0 
0.0294375 0.00904687 1.90215 2.492e+21 1.65718e-05 1.72362 4.13422 3.19125 
0.0298125 0.00904687 1.93897 2.81726e+21 1.87348e-05 1.92228 -4.58925 2.5393 
0.0294375 0.00914062 1.92735 2.62988e+21 1.74887e-05 5.49195 -0.929558 -4.67118 
0.0298125 0.00914062 1.95352 2.50606e+21 1.66653e-05 -1.54842 -0.588396 -2.4949 
0.0249375 0.00979687 2.07288 2.43061e+21 1.61636e-05 4.44427 -0.941772 -1.40408 
0.0253125 0.00979687 1.97746 2.55538e+21 1.69933e-05 3.20626 -0.75208 0.521314 
0.0249375 0.00989062 1.89705 2.53116e+21 1.68322e-05 0.920743 0.10922 -3.97697 
0.0253125 0.00989062 2.00675 2.6822e+21 1.78366e-05 4.5443 5.42728 -0.740097 
0.0271875 0.00998437 1.88491 2.65248e+21 1.7639e-05 2.34289 -1.21172 2.88678 
0.0275625 0.00998437 2.02398 2.47565e+21 1.64631e-05 0.709931 3.54334 1.74403 
0.0271875 0.0100781 1.8942 2.56492e+21 1.70567e-05 1.32479 -0.0625059 -2.10843 
0.0275625 0.0100781 2.00198 2.68171e+21 1.78334e-05 -0.854213 3.77369 3.30624 
0.0279375 0.0107344 1.75419 2.57681e+21 1.71358e-05 4.08218 0.764542 1.95008 
0.0283125 0.0107344 1.97966 2.4292e+21 1.61542e-05 0.0345482 0.700897 -3.28827 
0.0279375 0.0108281 1.96651 2.62975e+21 1.74879e-05 0.0158934 2.88253 -0.857265 
0.0283125 0.0108281 2.05813 2.57122e+21 1.70986e-05 -5.32125 1.89141 2.05263 
0.0256875 0.0114844 2.10911 2.61745e+21 1.7406e-05 3.09842 -1.09658 3.23028 
0.0260625 0.0114844 2.04238 2.64504e+21 1.75895e-05 -0.676793 1.18366 -2.34495 
0.0256875 0.0115781 1.94006 2.36947e+21 1.5757e-05 0.467612 -4.18854 0.41367 
0.0260625 0.0115781 2.08682 2.67446e+21 1.77851e-05 -0.0790453 6.78512 4.18689 
0.0249375 0.0124219 1.90967 2.57662e+21 1.71345e-05 2.54012 3.97538 -1.35899 
0.0253125 0.0124219 2.06067 2.49279e+21 1.65771e-05 1.92753 -2.21685 2.83315 
0.0249375 0.0125156 2.1112 2.54646e+21 1.6934e-05 -1.71654 2.91888 -2.6039 
0.0253125 0.0125156 1.92898 2.73817e+21 1.82089e-05 0.25262 -0.438917 0.293465 
0.0286875 0.0120469 2.03222 2.47644e+21 1.64684e-05 -3.33587 1.86688 -0.442125 
0.0290625 0.0120469 2.01262 2.67185e+21 1.77678e-05 -0.292648 0.0832305 -0.744481 
0.0286875 0.0121406 1.96937 2.39393e+21 1.59196e-05 -2.8042 -1.343 1.92204 
0.0290625 0.0121406 2.07708 2.49834e+21 1.6614e-05 -3.9957 3.98601 -1.74537 
0.0241875 0.0127969 2.05378 2.71337e+21 1.80439e-05 2.54386 2.19715 -1.74589 
0.0245625 0.0127969 2.0121 2.58955e+21 1.72205e-05 -5.82699 3.42976 1.33308 
0.0241875 0.0128906 1.94046 2.48643e+21 1.65348e-05 5.72857 0.341075 -1.96342 
0.0245625 0.0128906 2.01984 2.48995e+21 1.65581e-05 0.32934 -1.75655 0.00468528 
0.0241875 0.0131719 1.97836 2.51239e+21 1.67074e-05 -0.967149 -0.563165 1.97903 
0.0245625 0.0131719 2.08527 2.63268e+21 1.75073e-05 0.261281 0.285973 -3.44961 
0.0241875 0.0132656 2.04276 2.71646e+21 1.80644e-05 1.52259 3.05363 -3.40251 
0.0245625 0.0132656 1.95888 2.49464e+21 1.65893e-05 3.21437 -0.929395 -6.96758 
0.0256875 0.0131719 2.01575 2.56738e+21 1.70731e-05 4.16523 0.388719 -3.04983 
0.0260625 0.0131719 2.04405 2.68767e+21 1.7873e-05 5.75985 -1.99897 0.497819 
0.0256875 0.0132656 2.04577 2.61408e+21 1.73836e-05 1.45597 -1.07554 -0.98352 
0.0260625 0.0132656 2.02933 2.51852e+21 1.67482e-05 -1.29812 -1.7746 0.332962 
0.0256875 0.0133594 1.93653 2.59573e+21 1.72616e-05 -4.00319 -0.481927 -2.06588 
0.0256875 0.0134531 1.99989 2.48006e+21 1.64924e-05 -2.51798 -3.8395 -2.79941 
0.0271875 0.0133594 2.05391 2.49407e+21 1.65856e-05 2.7228 0.26846 -0.621105 
0.0275625 0.0133594 1.98901 2.58557e+21 1.7194e-05 0.632336 0.981404 -3.48034 
0.0271875 0.0134531 1.9105 2.5339e+21 1.68504e-05 0.772197 1.32535 2.57717 
0.0275625 0.0134531 2.02698 2.44304e+21 1.62462e-05 3.63586 6.07807 3.26014 
0.0283125 0.0133594 1.97526 2.6059e+21 1.73292e-05 -0.953904 -2.70379 -0.379647 
0.0279375 0.0134531 1.94748 2.64495e+21 1.75889e-05 -2.00307 0.528474 0.00593421 
0.0283125 0.0134531 2.01745 2.6012e+21 1.7298e-05 0.302792 3.25334 0.310871 
0.0286875 0.0133594 2.06592 2.62284e+21 1.74419e-05 -0.401547 -1.88237 1.99146 
0.0290625 0.0133594 1.96068 2.48052e+21 1.64955e-05 -0.354832 6.08058 1.29953 
0.0286875 0.0134531 2.03346 2.59784e+21 1.72756e-05 1.22017 -0.423352 -1.2002 
0.0290625 0.0134531 1.93896 2.38247e+21 1.58434e-05 -0.795791 1.20372 4.22994 
0.0264375 0.0135469 1.96459 2.56649e+21 1.70672e-05 0.207578 -2.39675 -0.170598 
0.0268125 0.0135469 1.93876 2.51971e+21 1.6756e-05 0.408922 1.30607 -0.158049 
0.0264375 0.0136406 2.03213 2.72807e+21 1.81416e-05 -1.32245 -0.600916 -0.64471 
0.0268125 0.0136406 2.01796 2.48579e+21 1.65305e-05 -4.55128 2.78185 -0.442668 
0.0256875 0.0141094 2.00119 2.63423e+21 1.75176e-05 3.54613 -0.798889 -5.0604 
0.0260625 0.0141094 2.02258 2.56043e+21 1.70269e-05 0.686601 -0.463254 0.238481 
0.0256875 0.0142031 1.96709 2.50847e+21 1.66813e-05 5.94079 3.6332 -0.0787335 
0.0260625 0.0142031 2.00709 2.68377e+21 1.78471e-05 5.54663 1.02685 -0.289493 
0.0290625 0.0135469 1.95837 2.71687e+21 1.80672e-05 -0.667889 -0.83598 -2.87315 
0.0286875 0.0136406 2.06629 2.46256e+21 1.6376e-05 0.0788419 -6.33778 -0.0559177 
0.0290625 0.0136406 2.04059 2.55217e+21 1.69719e-05 3.11736 -2.65194 0.851265 
0.0286875 0.0137344 1.91136 2.56112e+21 1.70314e-05 2.02985 0.0763696 -2.39692 
0.0290625 0.0137344 1.95624 2.55123e+21 1.69657e-05 2.77325 0.060063 -2.49616 
0.0286875 0.0138281 1.9975 2.64852e+21 1.76126e-05 2.92004 -1.94294 -3.94201 
0.0290625 0.0138281 2.02003 2.54703e+21 1.69377e-05 1.3249 0.612006 1.86709 
0.0294375 0.0141094 2.01973 2.58289e+21 1.71762e-05 0.369967 1.28899 -2.31891 
0.0298125 0.0141094 1.9487 2.64706e+21 1.76029e-05 1.04109 1.79714 0.118162 
0.0294375 0.0142031 1.99435 2.61684e+21 1.7402e-05 -1.154 0.627421 -3.34108 
0.0298125 0.0142031 2.02828 2.63277e+21 1.7508e-05 4.89356 -2.82383 0.543182 
0.0241875 0.0144844 1.99491 2.51289e+21 1.67107e-05 1.57768 -0.463638 -0.00706833 
0.0245625 0.0144844 2.10595 2.5879e+21 1.72096e-05 -0.195011 -1.25313 -4.56541 
0.0241875 0.0145781 1.9849 2.43152e+21 1.61696e-05 2.87827 -4.93045 -1.2593 
0.0245625 0.0145781 1.88847 2.56816e+21 1.70782e-05 3.33598 2.2688 -0.835459 
0.0256875 0.0144844 2.04888 2.62854e+21 1.74798e-05 -1.01399 -2.21833 -3.77535 
0.0260625 0.0144844 2.00163 2.53165e+21 1.68354e-05 0.0452679 -0.870348 2.16453 
0.0256875 0.0145781 2.08135 2.56816e+21 1.70782e-05 0.643608 1.03932 -3.23541 
0.0260625 0.0145781 2.00542 2.50294e+21 1.66446e-05 2.34202 -2.10652 -2.35704 
0.0249375 0.0146719 1.9396 2.61346e+21 1.73795e-05 -1.7133 0.897318 -2.26069 
0.0253125 0.0146719 1.95718 2.44375e+21 1.6251e-05 0.548348 -1.94008 -1.27633 
0.0253125 0.0147656 2.04308 2.60913e+21 1.73507e-05 0.391616 -3.64579 -1.4882 
0.0256875 0.0148594 1.9213 2.61704e+21 1.74033e-05 2.0303 -2.1619 1.41992 
0.0260625 0.0148594 1.94193 2.66578e+21 1.77275e-05 0.783153 -0.650165 -1.93107 
0.0260625 0.0149531 2.00239 2.5643e+21 1.70526e-05 -2.52232 -4.54028 -0.832112 
0.0271875 0.0142969 2.00275 2.45085e+21 1.62982e-05 -0.720779 1.96016 2.37779 
0.0275625 0.0142969 1.98673 2.66934e+21 1.77511e-05 2.26671 1.16793 -1.32178 
0.0271875 0.0143906 2.06887 2.59533e+21 1.72589e-05 -0.395215 2.20925 -2.42845 
0.0275625 0.0143906 1.90691 2.59533e+21 1.72589e-05 -1.89285 1.57147 2.73537 
0.0271875 0.0144844 2.02892 2.59415e+21 1.72511e-05 -0.92348 4.04805 -3.48573 
0.0271875 0.0145781 2.11924 2.59921e+21 1.72847e-05 -1.84296 0.547016 -1.63596 
0.0275625 0.0145781 1.98214 2.63958e+21 1.75532e-05 -0.704772 0.0493305 -2.69386 
0.0290625 0.0142969 1.98494 2.55851e+21 1.70141e-05 4.38572 -1.62408 -0.408968 
0.0286875 0.0143906 2.02867 2.51983e+21 1.67568e-05 1.92987 -0.116066 0.878987 
0.0290625 0.0143906 2.12095 2.59533e+21 1.72589e-05 -2.87028 1.43742 0.0557752 
0.0286875 0.0144844 1.98217 2.75043e+21 1.82904e-05 -3.25463 -1.6671 -4.0114 
0.0290625 0.0144844 2.00114 2.49726e+21 1.66068e-05 2.84126 0.337594 1.54867 
0.0286875 0.0145781 2.04889 2.55263e+21 1.6975e-05 -2.06371 -1.16737 -1.03189 
0.0290625 0.0145781 1.98251 2.35078e+21 1.56327e-05 -3.28455 -3.9507 -0.383917 
0.0294375 0.0144844 1.99359 2.5879e+21 1.72096e-05 0.388107 -2.63801 -1.87156 
0.0298125 0.0144844 1.93771 2.66604e+21 1.77292e-05 5.50887 1.08038 -2.41793 
0.0298125 0.0145781 2.0126 2.652e+21 1.76358e-05 3.3922 -0.182584 4.22072 
0.0283125 0.0146719 1.8969 2.59186e+21 1.72359e-05 1.66211 0.845415 -4.09557 
0.0279375 0.0147656 1.958 2.4589e+21 1.63517e-05 2.13317 -3.1877 -1.44704 
0.0283125 0.0147656 1.94567 2.52328e+21 1.67798e-05 -1.46997 -0.77746 0.163942 
0.0294375 0.0146719 2.04458 2.42832e+21 1.61484e-05 -0.999677 -0.112838 5.60704 
0.0298125 0.0146719 1.92715 2.78316e+21 1.8508e-05 3.86405 0.924893 -4.56449 
0.0298125 0.0147656 1.92085 2.49875e+21 1.66167e-05 -0.0422369 4.5054 -2.59526 
0.0286875 0.0148594 1.97636 2.75109e+21 1.82947e-05 3.3822 1.24297 -1.26187 
0.0290625 0.0148594 1.92616 2.47385e+21 1.64511e-05 2.72303 -0.0583967 -1.954 
0.0286875 0.0149531 2.02403 2.62182e+21 1.74351e-05 3.69178 -1.61683 1.31578 
0.0290625 0.0149531 1.97318 2.71568e+21 1.80593e-05 4.47399 -2.88126 -1.40906 
0.0294375 0.0148594 2.04393 2.64446e+21 1.75856e-05 -1.30421 -0.663912 0.428452 
0.0298125 0.0148594 2.02909 2.69016e+21 1.78895e-05 -1.06325 -0.482361 -0.0751121 