ITEM: TIMESTEP
500000
ITEM: NUMBER OF CELLS
22842
ITEM: BOX BOUNDS oo ao pp
0 0.12
0 0.03
-0.1 0.1
ITEM: CELLS xc yc f_out[1] f_out[2] f_out[3] f_out[4] f_out[5] f_out[6] 
0.003 0.00375 0 0 0 0 0 0 
0.003 0.00525 0 0 0 0 0 0 
0.003 0.00675 0 0 0 0 0 0 
0.003 0.00825 0 0 0 0 0 0 
0.003 0.00975 0 0 0 0 0 0 
0.003 0.01125 0 0 0 0 0 0 
0.003 0.01275 0 0 0 0 0 0 
0.003 0.01425 0 0 0 0 0 0 
0.003 0.01575 0 0 0 0 0 0 
0.003 0.01725 0 0 0 0 0 0 
0.003 0.01875 0 0 0 0 0 0 
0.003 0.02025 0 0 0 0 0 0 
0.003 0.02175 0 0 0 0 0 0 
0.003 0.02325 0 0 0 0 0 0 
0.027 0.02325 0 0 0 0 0 0 
0.003 0.02475 0 0 0 0 0 0 
0.027 0.02475 0 0 0 0 0 0 
0.003 0.02625 0 0 0 0 0 0 
0.027 0.02625 0 0 0 0 0 0 
0.003 0.02775 0 0 0 0 0 0 
0.027 0.02775 0 0 0 0 0 0 
0.003 0.02925 0 0 0 0 0 0 
0.027 0.02925 0 0 0 0 0 0 
0.009 0.01425 0 0 0 0 0 0 
0.009 0.01575 0 0 0 0 0 0 
0.009 0.01725 0 0 0 0 0 0 
0.009 0.01875 0 0 0 0 0 0 
0.009 0.02025 0 0 0 0 0 0 
0.009 0.02175 0 0 0 0 0 0 
0.009 0.02325 0 0 0 0 0 0 
0.009 0.02475 0 0 0 0 0 0 
0.009 0.02625 0 0 0 0 0 0 
0.009 0.02775 0 0 0 0 0 0 
0.009 0.02925 0 0 0 0 0 0 
0.015 0.01425 0 0 0 0 0 0 
0.015 0.01575 0 0 0 0 0 0 
0.015 0.01725 0 0 0 0 0 0 
0.015 0.01875 0 0 0 0 0 0 
0.015 0.02025 0 0 0 0 0 0 
0.015 0.02175 0 0 0 0 0 0 
0.015 0.02325 0 0 0 0 0 0 
0.015 0.02475 0 0 0 0 0 0 
0.015 0.02625 0 0 0 0 0 0 
0.015 0.02775 0 0 0 0 0 0 
0.015 0.02925 0 0 0 0 0 0 
0.021 0.02325 0 0 0 0 0 0 
0.021 0.02475 0 0 0 0 0 0 
0.021 0.02625 0 0 0 0 0 0 
0.021 0.02775 0 0 0 0 0 0 
0.021 0.02925 0 0 0 0 0 0 
0.0015 0.000375 0 0 0 0 0 0 
0.0015 0.001125 0 0 0 0 0 0 
0.0255 0.022125 0 0 0 0 0 0 
0.0285 0.022125 0 0 0 0 0 0 
0.0105 0.000375 1.83017 3.23515e+21 2.15137e-05 -4.84343 8.55175 4.54518 
0.0105 0.001125 1.96095 2.77248e+21 1.8437e-05 -0.140953 8.30722 -1.22332 
0.0075 0.013125 0 0 0 0 0 0 
0.0105 0.013125 0 0 0 0 0 0 
0.0135 0.013125 0 0 0 0 0 0 
0.0165 0.013125 0 0 0 0 0 0 
0.0195 0.022125 0 0 0 0 0 0 
0.0225 0.022125 0 0 0 0 0 0 
0.00375 0.0001875 1.88655 7.85379e+21 5.22277e-05 23.9757 -3.89554 -1.71378 
0.00525 0.0001875 1.89035 5.49285e+21 3.65275e-05 38.5439 -0.172057 -0.261436 
0.00825 0.0009375 1.9843 2.70417e+21 1.79827e-05 23.0224 13.3534 0.665878 
0.00675 0.0020625 2.03643 2.12576e+21 1.41363e-05 5.75091 11.9975 -0.299718 
0.01125 0.0061875 0 0 0 0 0 0 
0.01125 0.0065625 0 0 0 0 0 0 
0.01125 0.0069375 0 0 0 0 0 0 
0.01125 0.0073125 0 0 0 0 0 0 
0.01125 0.0091875 0 0 0 0 0 0 
0.0255 0.000375 2.14039 1.36755e+21 9.09423e-06 4.36802 -1.68313 -1.41581 
0.0285 0.000375 1.91211 1.52223e+21 1.01228e-05 2.45736 0.958308 3.86327 
0.0195 0.000375 2.03501 1.43169e+21 9.52072e-06 1.60137 -0.622294 0.893077 
0.0225 0.000375 2.01993 1.55995e+21 1.03737e-05 7.01768 0.259514 -1.26877 
0.02625 0.0024375 1.99845 1.54385e+21 1.02666e-05 1.71918 0.533487 1.73632 
0.01125 0.0046875 0 0 0 0 0 0 
0.01125 0.0050625 0 0 0 0 0 0 
0.01125 0.0084375 0 0 0 0 0 0 
0.01125 0.0088125 0 0 0 0 0 0 
0.01275 0.0024375 1.97306 1.55183e+21 1.03197e-05 3.07476 1.31039 -1.92433 
0.01275 0.0028125 2.0443 1.43546e+21 9.54581e-06 1.06723 -0.764046 -2.94574 
0.01275 0.0039375 1.95683 1.49016e+21 9.90958e-06 -0.252757 -3.07033 -2.62054 
0.003375 0.00084375 1.97689 7.78339e+21 5.17595e-05 18.7891 -8.10247 1.40594 
0.004125 0.00084375 1.91529 7.43111e+21 4.94169e-05 24.1894 -6.09012 -1.37975 
0.003375 0.00103125 1.92927 7.87003e+21 5.23357e-05 21.9137 -7.04347 -1.20372 
0.004125 0.00103125 1.87487 6.97992e+21 4.64165e-05 26.6447 -3.59254 2.89452 
0.003375 0.00121875 2.05807 8.18661e+21 5.4441e-05 22.0896 1.24999 -2.16665 
0.004125 0.00121875 1.99446 7.28046e+21 4.84151e-05 22.2389 -1.53586 4.48265 
0.003375 0.00140625 2.00477 7.91047e+21 5.26046e-05 14.4364 -5.0884 -2.71354 
0.004875 0.00121875 1.95408 6.29612e+21 4.18692e-05 27.0901 2.15114 0.457256 
0.005625 0.00121875 1.91938 5.18176e+21 3.44587e-05 31.0786 -1.27255 1.14831 
0.004875 0.00140625 2.05004 6.01195e+21 3.99795e-05 20.0051 -1.02657 0.452515 
0.005625 0.00140625 1.94269 4.91741e+21 3.27008e-05 20.2531 1.19598 1.53453 
0.027375 0.00646875 1.9646 1.43817e+21 9.5638e-06 -1.18655 -1.92166 -1.10058 
0.028125 0.00646875 1.9191 1.37693e+21 9.15659e-06 -3.57196 0.198082 -2.14081 
0.027375 0.00665625 2.02126 1.50817e+21 1.00294e-05 3.14993 1.7747 -3.83123 
0.028125 0.00665625 1.97969 1.45206e+21 9.65623e-06 -0.910129 -0.812477 -3.55405 
0.027375 0.00684375 2.08337 1.33621e+21 8.8858e-06 4.30972 -2.37514 -2.34909 
0.028125 0.00684375 2.02253 1.47182e+21 9.78758e-06 -0.674911 3.49946 -2.24015 
0.027375 0.00703125 1.9663 1.50661e+21 1.0019e-05 3.42631 1.1094 -1.76208 
0.028125 0.00796875 1.9629 1.50831e+21 1.00303e-05 1.6956 0.259652 -1.18981 
0.028125 0.00815625 2.04575 1.46809e+21 9.7628e-06 6.19608 -1.02211 -3.68609 
0.025875 0.00834375 1.996 1.43917e+21 9.57047e-06 0.299368 0.611249 -0.252942 
0.025875 0.00853125 2.08812 1.44601e+21 9.61597e-06 5.57074 -0.151461 0.718254 
0.025875 0.00871875 1.97702 1.45386e+21 9.66814e-06 2.53247 1.85947 -1.4707 
0.024375 0.0216562 2.04053 1.44488e+21 9.60845e-06 -0.666627 -0.541014 0.978941 
0.025125 0.0216562 1.90932 1.40911e+21 9.37061e-06 -0.708822 -2.26816 3.75346 
0.027375 0.0216562 2.04437 1.50568e+21 1.00128e-05 0.4635 -4.35704 -2.99616 
0.028125 0.0216562 1.94203 1.51998e+21 1.01079e-05 -8.237 -0.797048 0.331026 
0.006375 0.00121875 1.88625 3.71452e+21 2.47016e-05 44.4052 14.9199 -5.88323 
0.007125 0.00121875 1.91391 3.09234e+21 2.05641e-05 36.3122 7.91928 0.206947 
0.006375 0.00140625 1.92516 3.76653e+21 2.50474e-05 30.8865 5.84754 0.649607 
0.007125 0.00140625 1.89912 2.83294e+21 1.88391e-05 26.156 18.9611 -1.27323 
0.007875 0.00159375 1.93147 2.1801e+21 1.44976e-05 15.7065 21.1752 4.03687 
0.008625 0.00159375 2.01846 2.69139e+21 1.78977e-05 7.85479 9.50078 -2.49115 
0.007875 0.00178125 2.03053 2.5987e+21 1.72814e-05 11.5628 14.4822 -2.38765 
0.008625 0.00178125 2.00207 2.34455e+21 1.55912e-05 5.36044 18.9789 3.95921 
0.007875 0.00234375 2.05469 2.45307e+21 1.63129e-05 1.52963 11.6309 0.555986 
0.008625 0.00234375 2.01891 2.37098e+21 1.5767e-05 1.14874 9.85382 -3.26547 
0.007875 0.00253125 1.92433 2.1104e+21 1.40342e-05 6.47046 13.8878 0.442614 
0.008625 0.00253125 1.8761 2.27136e+21 1.51046e-05 1.98029 11.5302 0.432711 
0.007875 0.00309375 2.0423 2.02301e+21 1.3453e-05 -3.85581 13.7748 1.02729 
0.008625 0.00309375 1.95559 2.17665e+21 1.44747e-05 0.273008 13.0284 0.678185 
0.007875 0.00328125 1.80709 1.91086e+21 1.27072e-05 0.00363902 7.0026 3.0743 
0.008625 0.00328125 1.97547 2.07642e+21 1.38082e-05 -0.535969 8.33485 -2.44027 
0.007875 0.00346875 1.89949 1.98702e+21 1.32137e-05 -1.62568 6.71 -0.936809 
0.008625 0.00346875 2.04321 2.14363e+21 1.42551e-05 -1.2522 9.0579 -1.48692 
0.007875 0.00365625 1.81822 2.05846e+21 1.36888e-05 -0.628363 7.07409 2.21456 
0.008625 0.00365625 2.08331 1.99965e+21 1.32977e-05 0.772214 11.1484 4.11208 
0.007875 0.00384375 1.93718 1.93744e+21 1.2884e-05 1.87457 12.8328 -0.343221 
0.008625 0.00384375 1.928 2.19655e+21 1.46071e-05 -2.6694 9.40466 2.31192 
0.007875 0.00403125 2.14326 1.99893e+21 1.32929e-05 0.0536802 11.253 -4.49157 
0.008625 0.00403125 2.05776 2.0242e+21 1.34609e-05 -1.79158 15.5859 0.1201 
0.007875 0.00421875 1.84164 2.03349e+21 1.35227e-05 -2.61665 5.66028 0.60246 
0.008625 0.00421875 1.95096 2.00398e+21 1.33265e-05 -4.03636 12.1798 -0.307578 
0.007875 0.00440625 1.97571 2.01118e+21 1.33743e-05 -1.4281 9.03357 3.18813 
0.008625 0.00440625 2.00303 1.84679e+21 1.22811e-05 -0.269549 12.91 -0.104337 
0.007875 0.00496875 1.9437 1.87233e+21 1.2451e-05 -2.216 2.4123 -1.70979 
0.008625 0.00496875 2.00746 1.96572e+21 1.3072e-05 0.710111 12.9349 0.464814 
0.007875 0.00515625 2.01816 2.03252e+21 1.35163e-05 -2.52836 9.00688 0.589369 
0.008625 0.00515625 1.89653 1.96448e+21 1.30638e-05 -2.47359 8.07112 1.20737 
0.006375 0.00534375 2.02556 1.75126e+21 1.16459e-05 2.93027 10.2143 0.699741 
0.007125 0.00534375 1.94114 1.89766e+21 1.26195e-05 2.57195 4.02169 2.24848 
0.006375 0.00553125 1.97013 1.89523e+21 1.26033e-05 -0.417053 6.3049 -1.12831 
0.007125 0.00553125 2.00104 1.9868e+21 1.32122e-05 1.47296 6.29714 -3.93369 
0.007875 0.00571875 2.02737 1.90978e+21 1.27001e-05 1.12898 6.05607 0.974978 
0.007875 0.00590625 1.95511 1.91622e+21 1.27429e-05 -3.04277 8.06864 2.89509 
0.008625 0.00590625 2.00256 1.94305e+21 1.29213e-05 0.980525 6.4807 0.534354 
0.006375 0.00609375 1.95467 1.90137e+21 1.26441e-05 -0.487458 2.94977 -4.22002 
0.006375 0.00628125 1.93425 1.96624e+21 1.30755e-05 -2.49664 7.33863 -6.09124 
0.007875 0.00609375 1.93852 1.84055e+21 1.22396e-05 0.246889 4.7751 -0.164158 
0.007875 0.00628125 1.99149 2.03065e+21 1.35038e-05 2.74111 4.71 -1.61714 
0.008625 0.00628125 2.06029 2.00543e+21 1.33361e-05 -0.456906 5.13523 -3.71014 
0.006375 0.00646875 2.07008 1.8994e+21 1.2631e-05 -1.56558 2.28905 -6.2798 
0.007125 0.00646875 2.03955 1.85807e+21 1.23562e-05 -0.226135 7.82281 -3.37145 
0.006375 0.00665625 1.90346 1.9256e+21 1.28052e-05 1.19937 2.63739 -1.04868 
0.007875 0.00646875 2.04192 1.77059e+21 1.17744e-05 1.05591 5.09623 2.11461 
0.008625 0.00646875 2.0337 1.89831e+21 1.26238e-05 -0.00270706 6.93795 -3.69473 
0.008625 0.00665625 1.99108 1.87884e+21 1.24943e-05 -0.437002 4.41035 -0.748487 
0.007875 0.00684375 1.91854 1.80091e+21 1.1976e-05 -2.23886 4.50705 -3.8764 
0.006375 0.00721875 1.97691 1.86668e+21 1.24134e-05 1.87329 3.87356 1.80498 
0.006375 0.00740625 1.92162 1.94836e+21 1.29566e-05 -1.7962 1.6882 -0.180959 
0.008625 0.00721875 1.99872 1.73714e+21 1.1552e-05 0.426541 3.96384 2.62662 
0.006375 0.00759375 2.04342 1.86951e+21 1.24323e-05 -0.895352 5.6665 -1.91834 
0.006375 0.00778125 1.97444 1.73174e+21 1.15161e-05 7.2989 4.32193 1.05213 
0.006375 0.00796875 1.89932 1.76556e+21 1.1741e-05 -2.50524 4.00364 2.61901 
0.006375 0.00815625 2.0367 1.86026e+21 1.23707e-05 0.397959 1.82317 -3.17959 
0.006375 0.00834375 2.06401 1.71927e+21 1.14332e-05 2.65663 5.3328 -0.912854 
0.006375 0.00853125 1.9393 1.71382e+21 1.13969e-05 0.682065 3.76147 -1.66147 
0.006375 0.00871875 2.01619 1.73294e+21 1.15241e-05 -4.027 -2.24375 1.43008 
0.006375 0.00890625 2.00805 1.67025e+21 1.11072e-05 -2.74312 3.84175 0.315892 
0.006375 0.00909375 2.05075 1.75249e+21 1.16541e-05 0.539702 3.35432 -0.866647 
0.006375 0.00928125 2.15389 1.64392e+21 1.09321e-05 1.8852 3.98521 -3.03485 
0.006375 0.00946875 2.02553 1.74584e+21 1.16098e-05 0.0109901 2.10926 -1.39679 
0.006375 0.00965625 2.01375 1.79984e+21 1.19689e-05 -1.37619 5.65431 2.82983 
0.006375 0.00984375 1.98364 1.68148e+21 1.11819e-05 1.7709 1.03561 0.31442 
0.006375 0.0102187 2.05454 1.61978e+21 1.07715e-05 -3.11183 6.16039 -2.64727 
0.006375 0.0104062 2.00798 1.64769e+21 1.09572e-05 2.44741 4.7112 -1.77536 
0.006375 0.0109687 2.07136 1.70636e+21 1.13473e-05 1.56611 0.0570287 -1.31635 
0.006375 0.0111562 2.03932 1.6986e+21 1.12957e-05 -0.744644 4.15588 -2.67252 
0.006375 0.0113437 2.03452 1.71542e+21 1.14076e-05 -0.136298 -0.245872 -4.441 
0.006375 0.0117188 1.93907 1.76918e+21 1.17651e-05 1.39518 -2.24589 0.987307 
0.006375 0.0119063 1.99432 1.70033e+21 1.13072e-05 -3.10916 1.03435 0.541306 
0.006375 0.0120938 1.97789 1.70028e+21 1.13069e-05 4.06821 3.7481 2.43017 
0.006375 0.0126563 2.08012 1.72278e+21 1.14565e-05 4.97868 1.32519 0.0571817 
0.013875 0.00721875 1.97333 1.53333e+21 1.01966e-05 0.0241524 1.70363 1.66378 
0.014625 0.00721875 1.9314 1.5004e+21 9.97767e-06 1.10956 -1.85991 1.08657 
0.013875 0.00740625 2.01921 1.51743e+21 1.00909e-05 0.634325 -1.07046 0.513578 
0.013875 0.00796875 1.95462 1.4515e+21 9.6525e-06 -0.415316 1.12758 -0.0736907 
0.013875 0.00815625 1.98189 1.4556e+21 9.67975e-06 2.11166 -2.37013 4.45903 
0.014625 0.00815625 1.9625 1.46115e+21 9.71666e-06 -0.203279 -2.64621 -1.40941 
0.017625 0.00834375 1.99025 1.51106e+21 1.00485e-05 1.13477 -0.834375 -0.323432 
0.016875 0.00871875 2.05544 1.47073e+21 9.78036e-06 3.57114 -2.13105 -1.69561 
0.013875 0.00909375 2.0501 1.44742e+21 9.62534e-06 1.7864 -3.63149 1.98757 
0.012375 0.00946875 2.02662 1.62824e+21 1.08278e-05 4.76651 4.41987 -3.54744 
0.019125 0.00928125 1.97386 1.50598e+21 1.00147e-05 -0.201816 3.88732 -1.3573 
0.018375 0.00965625 2.07943 1.48265e+21 9.85964e-06 1.83683 -1.4323 -2.19833 
0.018375 0.0126563 1.97364 1.53217e+21 1.01889e-05 1.37158 3.84878 1.35574 
0.019875 0.0216562 1.90417 1.44488e+21 9.60845e-06 0.972659 -2.07881 0.341542 
0.020625 0.0216562 1.98061 1.43415e+21 9.5371e-06 -0.693139 -2.47694 -2.70604 
0.021375 0.0216562 2.09734 1.58794e+21 1.05598e-05 -3.2481 2.09742 2.72173 
0.022125 0.0216562 2.09797 1.51998e+21 1.01079e-05 6.24797 6.23687 -3.749 
0.0015 0.001875 0 0 0 0 0 0 
0.0015 0.002625 0 0 0 0 0 0 
0.0045 0.002625 0 0 0 0 0 0 
0.0135 0.000375 2.01649 1.42455e+21 9.47327e-06 3.81604 0.105577 -4.66726 
0.0165 0.000375 1.86613 1.53921e+21 1.02357e-05 -1.37969 3.40656 -3.99596 
0.02775 0.0016875 1.88153 1.4822e+21 9.85661e-06 -1.13414 -2.54014 2.88843 
0.02925 0.0016875 1.99676 1.42519e+21 9.47751e-06 0.74073 1.13314 1.08925 
0.02775 0.0020625 2.04687 1.49531e+21 9.94379e-06 -1.26414 -0.289964 -1.29697 
0.01125 0.0054375 0 0 0 0 0 0 
0.01125 0.0058125 0 0 0 0 0 0 
0.01125 0.0076875 0 0 0 0 0 0 
0.01125 0.0080625 0 0 0 0 0 0 
0.01275 0.0031875 2.09137 1.41637e+21 9.41889e-06 0.662247 0.913021 1.47753 
0.004875 0.00084375 1.93538 6.27754e+21 4.17457e-05 26.7246 -1.07964 0.708826 
0.005625 0.00084375 1.95007 5.59345e+21 3.71965e-05 40.4116 1.32437 3.31833 
0.004875 0.00103125 1.91761 6.33242e+21 4.21106e-05 35.5259 -1.71767 -4.648 
0.005625 0.00103125 1.83132 5.10325e+21 3.39366e-05 36.7851 5.78154 -5.39578 
0.028875 0.00646875 1.9145 1.52565e+21 1.01455e-05 -0.133483 2.0012 1.52469 
0.029625 0.00646875 1.96401 1.47141e+21 9.78487e-06 1.85939 2.84595 -1.92781 
0.028875 0.00665625 2.10579 1.40276e+21 9.32832e-06 3.62019 0.0108428 -0.5707 
0.029625 0.00665625 2.03088 1.53708e+21 1.02216e-05 1.82754 -0.240444 -2.65754 
0.025875 0.00684375 2.02501 1.49331e+21 9.93054e-06 -1.24565 1.38056 1.97158 
0.026625 0.00684375 2.03958 1.44701e+21 9.62262e-06 0.693089 -2.58118 -1.88054 
0.025875 0.00703125 2.00277 1.36657e+21 9.08771e-06 -0.4163 -2.19478 3.02149 
0.026625 0.00703125 2.00714 1.45671e+21 9.68713e-06 1.55405 2.26589 1.74576 
0.025875 0.00721875 2.06798 1.4565e+21 9.68574e-06 4.06035 -0.674033 0.427775 
0.026625 0.00721875 1.96992 1.50981e+21 1.00402e-05 3.65596 5.39577 -1.77283 
0.025875 0.00740625 2.06132 1.46242e+21 9.72507e-06 4.01873 -0.0287003 0.64731 
0.026625 0.00740625 1.99492 1.47464e+21 9.80637e-06 -0.742595 1.61241 -0.193847 
0.029625 0.00684375 1.90541 1.48174e+21 9.85356e-06 2.57177 6.64495 -4.30372 
0.028875 0.00703125 2.04267 1.54685e+21 1.02866e-05 2.63871 0.813425 0.0408609 
0.029625 0.00703125 1.94335 1.47925e+21 9.83699e-06 -2.77007 4.22868 1.04497 
0.027375 0.00721875 2.00579 1.44553e+21 9.61276e-06 -0.0879448 -0.85563 1.78712 
0.028125 0.00721875 2.03295 1.42985e+21 9.5085e-06 0.833747 0.817014 -0.702293 
0.027375 0.00740625 2.03421 1.49604e+21 9.94864e-06 1.88239 -0.537748 3.60824 
0.028125 0.00740625 1.93699 1.50826e+21 1.00299e-05 0.8089 1.47527 1.24 
0.025125 0.00759375 2.04586 1.45015e+21 9.64352e-06 1.54056 0.294353 1.58381 
0.024375 0.00778125 2.01568 1.41667e+21 9.42082e-06 -0.72602 -2.63253 -0.772634 
0.025125 0.00778125 2.04631 1.37739e+21 9.15967e-06 3.87703 -1.21643 -0.167744 
0.028875 0.00815625 2.07291 1.45976e+21 9.70743e-06 0.216123 4.19884 -1.8269 
0.025125 0.00834375 1.94583 1.42832e+21 9.49831e-06 0.410419 1.98255 -1.40671 
0.025125 0.00871875 1.93983 1.45515e+21 9.67677e-06 0.0263456 -0.797945 2.71631 
0.028125 0.00834375 1.99754 1.54226e+21 1.0256e-05 2.86425 -2.28189 0.527962 
0.025875 0.0216562 2.14307 1.46634e+21 9.75115e-06 -3.49855 -1.30609 -1.50661 
0.026625 0.0216562 1.93328 1.3805e+21 9.18035e-06 1.77288 -2.36177 -0.895482 
0.028875 0.0216562 2.04046 1.41627e+21 9.41818e-06 1.6509 2.86437 1.9446 
0.029625 0.0216562 2.1074 1.47707e+21 9.8225e-06 1.99307 -2.91559 0.390583 
0.006375 0.00309375 1.98664 2.31155e+21 1.53718e-05 0.915874 2.17627 -0.171952 
0.007125 0.00309375 2.03587 2.16202e+21 1.43774e-05 0.462638 11.5822 -4.87515 
0.006375 0.00328125 2.01063 2.01131e+21 1.33752e-05 1.11127 7.73287 1.23824 
0.007125 0.00328125 1.98988 1.9557e+21 1.30054e-05 -4.60818 6.75816 -2.62628 
0.006375 0.00346875 2.02913 1.91483e+21 1.27336e-05 1.65161 5.21978 -0.718914 
0.007125 0.00346875 2.09734 2.0588e+21 1.3691e-05 0.384798 9.03073 -0.463792 
0.006375 0.00365625 2.16762 1.86307e+21 1.23894e-05 0.499564 1.06371 -3.63693 
0.007125 0.00365625 1.8634 1.9687e+21 1.30918e-05 0.465187 9.09868 -0.379679 
0.006375 0.00459375 1.97766 1.94479e+21 1.29329e-05 -1.29128 5.27055 2.30317 
0.007125 0.00459375 2.01031 1.96112e+21 1.30414e-05 -0.235838 4.8316 0.683013 
0.006375 0.00478125 2.0507 1.98836e+21 1.32226e-05 -0.464917 7.24847 4.25813 
0.007125 0.00478125 1.94048 1.98363e+21 1.31911e-05 -0.320767 5.60957 1.65288 
0.007875 0.00459375 1.96598 1.8872e+21 1.25499e-05 0.947324 5.61525 -1.84043 
0.008625 0.00459375 2.01036 1.93155e+21 1.28448e-05 3.07842 11.394 2.79956 
0.007875 0.00478125 2.03797 1.82977e+21 1.21679e-05 -0.822627 10.5675 0.167888 
0.007875 0.00534375 1.97973 1.84895e+21 1.22955e-05 4.08705 5.6646 0.35195 
0.007875 0.00553125 2.12164 1.83334e+21 1.21917e-05 1.05677 7.11045 -1.21619 
0.008625 0.00553125 1.98886 2.0093e+21 1.33619e-05 5.37482 8.7682 0.105028 
0.006375 0.00571875 2.03663 1.84423e+21 1.22641e-05 1.82411 -3.46719 1.86075 
0.007125 0.00571875 1.92137 1.91374e+21 1.27264e-05 2.34028 3.66699 0.346457 
0.006375 0.00590625 2.02648 1.83598e+21 1.22093e-05 -2.08838 3.35658 -5.17092 
0.007125 0.00590625 2.06133 1.91047e+21 1.27046e-05 -0.0682495 5.75879 1.29442 
0.010125 0.00946875 2.08863 1.57999e+21 1.05069e-05 -0.755823 -1.64199 -4.2863 
0.006375 0.0105937 1.9743 1.77477e+21 1.18022e-05 -1.5448 1.03317 0.88749 
0.016875 0.00646875 2.02839 1.44167e+21 9.58707e-06 0.702446 2.78968 -4.22376 
0.017625 0.00646875 2.05439 1.45041e+21 9.64525e-06 0.758584 -1.04718 2.04321 
0.016875 0.00665625 2.00181 1.46907e+21 9.7693e-06 1.10258 -0.608177 0.824311 
0.015375 0.00684375 1.92717 1.3974e+21 9.2927e-06 -3.8885 -0.647598 -0.247545 
0.016125 0.00684375 2.0078 1.50985e+21 1.00405e-05 0.928426 -2.03639 0.78403 
0.016125 0.00703125 2.00794 1.48729e+21 9.89051e-06 2.02323 0.487104 3.75363 
0.013875 0.00759375 2.07939 1.50977e+21 1.004e-05 -2.08489 -2.19462 -2.17271 
0.014625 0.00759375 2.02518 1.44866e+21 9.63361e-06 1.95919 -0.653085 -0.0078742 
0.015375 0.00759375 1.94207 1.55448e+21 1.03373e-05 -2.42839 0.306792 -1.28367 
0.016125 0.00759375 2.00093 1.55448e+21 1.03373e-05 1.63115 -0.624804 -2.49676 
0.015375 0.00778125 2.0455 1.40794e+21 9.36279e-06 3.43293 -1.39524 0.696281 
0.015375 0.00796875 1.92034 1.48133e+21 9.85084e-06 1.99899 -3.04026 -0.103022 
0.016125 0.00815625 1.96865 1.61101e+21 1.07132e-05 -2.27171 -2.18467 -0.339916 
0.017625 0.00796875 2.01788 1.50263e+21 9.99251e-06 6.06107 -2.93605 0.715042 
0.013875 0.00871875 1.95343 1.45256e+21 9.65951e-06 1.82027 3.33253 -0.29848 
0.016125 0.00834375 1.99308 1.53141e+21 1.01838e-05 1.74037 -0.207397 1.53801 
0.022875 0.00534375 2.01241 1.4889e+21 9.90121e-06 -0.693223 0.698994 -0.693832 
0.023625 0.00534375 2.04582 1.44655e+21 9.61953e-06 6.42548 -4.36731 -1.28002 
0.022875 0.00553125 1.91521 1.43025e+21 9.51115e-06 3.86023 2.78149 0.432945 
0.023625 0.00553125 1.96378 1.46503e+21 9.74247e-06 -0.648998 0.337827 0.712486 
0.018375 0.00609375 1.94379 1.40409e+21 9.33719e-06 2.49486 1.88878 -1.83529 
0.019125 0.00609375 2.1035 1.44866e+21 9.63361e-06 2.64101 3.58944 1.79357 
0.018375 0.00628125 2.05351 1.52975e+21 1.01728e-05 0.160446 -4.36765 -3.31115 
0.019125 0.00628125 2.11719 1.39101e+21 9.25019e-06 5.32226 1.90514 2.45194 
0.020625 0.00665625 1.98714 1.54048e+21 1.02442e-05 4.12189 0.19724 -1.82698 
0.019875 0.00684375 1.9948 1.47843e+21 9.83156e-06 1.60395 0.652597 0.23091 
0.020625 0.00684375 2.04969 1.51977e+21 1.01065e-05 3.78854 1.90609 1.81088 
0.020625 0.00703125 2.02321 1.42774e+21 9.49446e-06 -0.376517 -3.13097 -1.10524 
0.019875 0.00721875 1.94678 1.43926e+21 9.57106e-06 -1.87894 -1.94114 -0.578018 
0.020625 0.00721875 2.04348 1.53646e+21 1.02175e-05 1.84771 1.69437 -2.54353 
0.019875 0.00740625 1.9851 1.5052e+21 1.00096e-05 -0.0648721 -1.81789 -0.206183 
0.020625 0.00740625 1.97584 1.45478e+21 9.67426e-06 4.92684 1.80588 0.137135 
0.021375 0.00684375 2.02056 1.50324e+21 9.99652e-06 -2.0972 -0.860678 2.05498 
0.022125 0.00684375 2.05416 1.43543e+21 9.54564e-06 4.80824 0.689825 0.50721 
0.022125 0.00703125 2.08298 1.5887e+21 1.05649e-05 2.55173 -0.60675 -3.32737 
0.022875 0.00721875 2.06887 1.42515e+21 9.47722e-06 2.21853 2.38986 -1.23032 
0.023625 0.00721875 2.02048 1.5835e+21 1.05302e-05 3.80411 0.326744 -1.24291 
0.022875 0.00740625 1.99673 1.41657e+21 9.42021e-06 -2.45703 1.69537 -1.97576 
0.023625 0.00740625 1.97484 1.53271e+21 1.01925e-05 2.27833 1.02004 0.770906 
0.019875 0.00759375 2.03036 1.52616e+21 1.0149e-05 2.32083 -5.92971 -0.956658 
0.020625 0.00759375 2.04046 1.49338e+21 9.93095e-06 1.7815 -1.02749 -0.557215 
0.019875 0.00796875 2.05677 1.57223e+21 1.04553e-05 2.47753 -0.268799 1.01223 
0.020625 0.00796875 2.01022 1.49127e+21 9.91695e-06 -2.22297 0.368473 -0.283359 
0.022875 0.00759375 2.00069 1.48741e+21 9.8913e-06 -1.32456 -2.27166 -0.175811 
0.023625 0.00759375 1.9373 1.50381e+21 1.00003e-05 0.634488 -2.3792 -0.860855 
0.022875 0.00778125 2.07076 1.5563e+21 1.03494e-05 -0.928845 -0.0467049 5.38653 
0.019875 0.00834375 1.99552 1.49343e+21 9.93128e-06 2.65324 5.75043 -1.5262 
0.020625 0.00834375 2.04732 1.51648e+21 1.00846e-05 2.38306 0.898304 1.302 
0.022125 0.00834375 1.97607 1.45138e+21 9.65165e-06 -0.32447 -1.11488 -2.29445 
0.022125 0.00871875 1.923 1.46035e+21 9.7113e-06 2.67508 1.84931 -1.16653 
0.023625 0.00946875 1.90366 1.47257e+21 9.79258e-06 2.09608 0.160779 -1.11567 
0.021375 0.00984375 2.03385 1.46361e+21 9.73301e-06 0.229579 1.44247 -6.15478 
0.018375 0.0188437 0 0 0 0 0 0 
0.018375 0.0190312 0 0 0 0 0 0 
0.0294375 0.0169219 2.08093 1.50886e+21 1.00339e-05 -0.738836 0.521599 1.3219 
0.0298125 0.0169219 2.03496 1.53561e+21 1.02118e-05 3.34674 -0.00811832 -2.1636 
0.0294375 0.0170156 2.16312 1.62825e+21 1.08279e-05 -1.24071 0.145975 -3.02226 
0.0298125 0.0170156 1.99626 1.52715e+21 1.01555e-05 4.3175 1.82257 -3.88979 
0.0294375 0.0182344 1.9866 1.57901e+21 1.05004e-05 0.322913 4.26743 2.06093 
0.0298125 0.0182344 1.92574 1.43749e+21 9.55932e-06 -3.94512 0.185729 -1.98036 
0.0294375 0.0183281 2.02841 1.4746e+21 9.80608e-06 -1.74075 3.45743 -0.526721 
0.0298125 0.0183281 2.04524 1.39556e+21 9.28046e-06 -2.50783 2.94236 -6.98799 
0.0294375 0.0186094 1.96152 1.55449e+21 1.03373e-05 -1.96747 7.37481 -2.12697 
0.0298125 0.0186094 1.89976 1.39636e+21 9.2858e-06 3.88487 -0.380437 1.78209 
0.0294375 0.0187031 1.97255 1.35063e+21 8.98171e-06 -0.460081 4.85695 1.39127 
0.0298125 0.0187031 1.90231 1.43051e+21 9.51289e-06 3.49481 -0.125803 0.16824 
0.0256875 0.0189844 2.09029 1.52616e+21 1.0149e-05 2.05729 2.01865 -1.34134 
0.0260625 0.0189844 1.99888 1.48324e+21 9.86355e-06 4.04444 -0.634174 -1.34985 
0.0256875 0.0190781 1.96456 1.56612e+21 1.04147e-05 1.15081 -1.7292 1.95806 
0.0260625 0.0190781 2.1146 1.49256e+21 9.92554e-06 -0.512386 -1.1804 -1.96929 
0.0249375 0.0202969 2.01372 1.5836e+21 1.0531e-05 2.03603 1.3974 1.59178 
0.0253125 0.0202969 2.02286 1.49662e+21 9.95251e-06 2.39077 -2.13034 0.136713 
0.0249375 0.0203906 1.87641 1.33877e+21 8.90279e-06 -2.61828 4.45035 5.76669 
0.0253125 0.0203906 1.95819 1.43645e+21 9.55241e-06 -0.0324046 1.01637 -0.475801 
0.0264375 0.0206719 2.05176 1.46728e+21 9.7574e-06 -1.12612 -0.641449 2.54679 
0.0268125 0.0206719 1.94646 1.42129e+21 9.45157e-06 -2.99931 -0.0895255 -1.23432 
0.0264375 0.0207656 2.02766 1.55658e+21 1.03512e-05 0.33245 -1.36843 -1.36372 
0.0268125 0.0207656 1.94284 1.36909e+21 9.10445e-06 2.13536 1.52567 1.72326 
0.0286875 0.0202969 1.87994 1.4364e+21 9.55204e-06 -1.69636 -5.53796 -2.71903 
0.0290625 0.0202969 1.96493 1.40294e+21 9.32955e-06 3.35571 -5.09984 -2.61819 
0.0286875 0.0203906 1.97961 1.52082e+21 1.01134e-05 -1.19073 -0.864568 -2.93016 
0.0290625 0.0203906 1.95095 1.45643e+21 9.68529e-06 1.83525 -1.76675 -0.790464 
0.0271875 0.0210469 1.94257 1.52287e+21 1.01271e-05 4.1774 -3.47359 -1.65311 
0.0275625 0.0210469 2.00096 1.40242e+21 9.32608e-06 0.148814 0.32481 2.34489 
0.0271875 0.0211406 1.90089 1.41119e+21 9.38441e-06 3.31244 2.73639 -0.070472 
0.0275625 0.0211406 2.00125 1.36836e+21 9.0996e-06 2.73539 -3.55111 -3.20374 
0.0219375 0.0191719 2.00566 1.45693e+21 9.68857e-06 0.342526 -0.184179 1.91543 
0.0223125 0.0191719 1.94339 1.4404e+21 9.57865e-06 4.02093 -2.10778 4.74134 
0.0219375 0.0192656 2.08449 1.51563e+21 1.0079e-05 -1.27351 3.49401 -2.24484 
0.0223125 0.0192656 1.98217 1.57673e+21 1.04852e-05 1.28451 -0.870152 3.5072 
0.0234375 0.0193594 1.99706 1.4358e+21 9.54808e-06 -0.560535 -1.51972 2.3043 
0.0238125 0.0193594 2.00369 1.47789e+21 9.828e-06 2.28039 0.037493 0.867606 
0.0234375 0.0194531 2.00107 1.44285e+21 9.59492e-06 -7.41543 -1.18425 1.62587 
0.0238125 0.0194531 2.08342 1.38467e+21 9.20803e-06 2.63857 -0.326969 -0.515625 
0.0211875 0.0212344 2.00732 1.56059e+21 1.03779e-05 0.0464053 0.990727 -0.407337 
0.0215625 0.0212344 1.99325 1.45826e+21 9.69741e-06 -5.38287 -2.84015 0.563049 
0.0211875 0.0213281 2.01704 1.46034e+21 9.71125e-06 1.78706 -6.66771 -1.03506 
0.0215625 0.0213281 1.97119 1.43487e+21 9.54186e-06 -5.12693 -3.4292 0.386626 
0.02625 0.0016875 1.99972 1.55597e+21 1.03472e-05 1.00053 -0.628058 1.21487 
0.00675 0.0001875 1.69269 3.78765e+21 2.51879e-05 44.9153 4.31395 1.06152 
0.00825 0.0001875 2.11081 2.71624e+21 1.8063e-05 21.8362 -0.0609624 3.04143 
0.00675 0.0005625 1.88708 3.73735e+21 2.48534e-05 43.7355 5.70337 0.341593 
0.00825 0.0005625 1.93847 2.76152e+21 1.83641e-05 24.5352 3.48133 0.701533 
0.01875 0.0016875 1.97142 1.44531e+21 9.61131e-06 -1.91305 1.08723 2.9672 
0.02025 0.0016875 1.93877 1.4604e+21 9.71166e-06 -1.2259 -1.41894 -1.45482 
0.02175 0.0016875 1.98142 1.44531e+21 9.61131e-06 -2.22929 0.312099 3.53662 
0.02325 0.0016875 1.89161 1.47717e+21 9.82316e-06 -0.530564 4.46674 1.12092 
0.024375 0.00496875 2.0203 1.42133e+21 9.45185e-06 1.68891 3.70615 -4.8739 
0.025125 0.00496875 1.87585 1.4145e+21 9.40641e-06 -0.496589 0.97336 3.77806 
0.024375 0.00515625 1.96707 1.61767e+21 1.07575e-05 0.896708 -1.93879 1.79344 
0.025125 0.00515625 2.0363 1.50793e+21 1.00277e-05 4.49459 1.5979 0.378171 
0.025875 0.00534375 1.96267 1.38936e+21 9.23925e-06 -1.22107 0.581215 -2.26663 
0.026625 0.00534375 1.99048 1.3936e+21 9.26742e-06 2.07042 4.70941 0.7155 
0.025875 0.00553125 1.97722 1.57143e+21 1.045e-05 0.747627 -2.61662 -5.25162 
0.026625 0.00553125 1.96887 1.51619e+21 1.00826e-05 7.49352 1.79238 0.102252 
0.028125 0.00534375 1.91924 1.49102e+21 9.9153e-06 2.94829 -1.99757 1.14645 
0.027375 0.00553125 2.04464 1.48959e+21 9.90575e-06 2.29302 -2.4824 -0.937788 
0.028875 0.00534375 1.93694 1.41689e+21 9.42235e-06 0.29109 1.52134 -0.566092 
0.029625 0.00534375 2.03688 1.49102e+21 9.9153e-06 -3.93916 -1.13093 -2.55525 
0.028875 0.00553125 1.94206 1.44048e+21 9.57919e-06 3.53207 0.117124 -0.157666 
0.029625 0.00553125 1.95884 1.47731e+21 9.82411e-06 2.55833 2.07638 -3.45181 
0.027375 0.00571875 1.95469 1.48627e+21 9.88367e-06 4.74732 -0.0346532 -1.97521 
0.028125 0.00571875 1.95797 1.47241e+21 9.79154e-06 3.43131 0.0533823 2.51982 
0.027375 0.00590625 2.00557 1.48124e+21 9.85024e-06 2.25312 -0.541071 3.77108 
0.024375 0.00609375 1.97994 1.55453e+21 1.03376e-05 2.87752 -0.632156 -1.06581 
0.025125 0.00609375 1.95971 1.45052e+21 9.64596e-06 1.7577 -0.205529 -3.90787 
0.024375 0.00628125 2.02346 1.55857e+21 1.03645e-05 3.1175 -1.96285 2.59689 
0.025125 0.00628125 2.00562 1.40722e+21 9.35802e-06 0.139738 0.512211 -4.03166 
0.024375 0.00646875 2.00934 1.46266e+21 9.72669e-06 1.48194 -4.68165 1.64216 
0.025125 0.00646875 1.97737 1.41367e+21 9.40092e-06 3.41044 5.20626 1.35359 
0.024375 0.00665625 2.06146 1.46397e+21 9.73538e-06 -2.05348 -1.10648 3.10226 
0.025125 0.00665625 2.04245 1.43166e+21 9.52054e-06 1.65453 3.19761 0.231857 
0.027375 0.00609375 1.89673 1.46166e+21 9.72007e-06 0.00323376 1.69955 5.61613 
0.028125 0.00609375 1.90073 1.50067e+21 9.97944e-06 5.5071 -3.10841 5.09196 
0.027375 0.00628125 2.00177 1.43245e+21 9.52577e-06 -0.924574 4.22211 -4.39819 
0.028125 0.00628125 2.0541 1.39821e+21 9.29811e-06 2.90382 -0.104069 -3.01919 
0.028875 0.00609375 1.95688 1.41338e+21 9.39895e-06 2.6002 1.43343 0.389306 
0.029625 0.00609375 1.95911 1.41895e+21 9.436e-06 2.80146 0.77846 0.233952 
0.028875 0.00628125 1.97451 1.44146e+21 9.58568e-06 0.452087 -4.54781 1.6624 
0.029625 0.00628125 1.99762 1.43425e+21 9.53776e-06 -0.0382623 1.06451 0.71066 
0.028875 0.00721875 1.99681 1.43299e+21 9.52935e-06 0.454568 1.50713 -5.16693 
0.028875 0.00740625 1.9579 1.49451e+21 9.93847e-06 0.584004 0.161209 1.71953 
0.029625 0.00740625 1.92674 1.51132e+21 1.00503e-05 -2.57174 2.27432 2.05474 
0.026625 0.00778125 2.0096 1.45885e+21 9.70132e-06 1.68142 1.6514 -1.77176 
0.025125 0.00796875 2.01459 1.51116e+21 1.00492e-05 -1.29234 3.28851 -0.374708 
0.024375 0.00815625 2.01464 1.48197e+21 9.85508e-06 -0.241441 0.115646 0.322922 
0.025875 0.00796875 2.01858 1.45434e+21 9.67139e-06 1.99572 1.67384 -3.15159 
0.026625 0.00796875 1.98026 1.47849e+21 9.83195e-06 4.0713 1.16794 -0.489266 
0.026625 0.00815625 1.94729 1.49584e+21 9.94735e-06 2.56165 3.11465 1.9973 
0.028125 0.00759375 1.97198 1.4591e+21 9.70299e-06 3.96885 -0.0366703 2.85755 
0.027375 0.00778125 1.94169 1.47339e+21 9.79804e-06 1.81014 0.943961 4.37238 
0.029625 0.00834375 1.98322 1.49207e+21 9.92226e-06 -0.311084 0.316467 -2.90311 
0.028125 0.00909375 1.95836 1.48849e+21 9.89845e-06 5.76902 1.54689 -0.958192 
0.007875 0.00271875 2.06521 2.09806e+21 1.39521e-05 3.65313 15.5882 1.0661 
0.008625 0.00271875 2.0381 2.28539e+21 1.51979e-05 7.21236 10.0516 -0.621695 
0.007875 0.00290625 1.91397 2.20026e+21 1.46317e-05 4.08983 15.5524 -0.348189 
0.008625 0.00290625 1.94372 2.21194e+21 1.47094e-05 3.09634 10.5312 -4.05719 