ITEM: TIMESTEP
500000
ITEM: NUMBER OF CELLS
40402
ITEM: BOX BOUNDS oo ao pp
0 0.12
0 0.03
-0.1 0.1
ITEM: CELLS xc yc f_out[1] f_out[2] f_out[3] f_out[4] f_out[5] f_out[6] 
0.003 0.00375 0 0 0 0 0 0 
0.003 0.00525 0 0 0 0 0 0 
0.003 0.00675 0 0 0 0 0 0 
0.003 0.00825 0 0 0 0 0 0 
0.003 0.00975 0 0 0 0 0 0 
0.003 0.01125 0 0 0 0 0 0 
0.003 0.01275 0 0 0 0 0 0 
0.003 0.01425 0 0 0 0 0 0 
0.003 0.01575 0 0 0 0 0 0 
0.003 0.01725 0 0 0 0 0 0 
0.003 0.01875 0 0 0 0 0 0 
0.003 0.02025 0 0 0 0 0 0 
0.003 0.02175 0 0 0 0 0 0 
0.003 0.02325 0 0 0 0 0 0 
0.027 0.02325 0 0 0 0 0 0 
0.003 0.02475 0 0 0 0 0 0 
0.027 0.02475 0 0 0 0 0 0 
0.003 0.02625 0 0 0 0 0 0 
0.027 0.02625 0 0 0 0 0 0 
0.003 0.02775 0 0 0 0 0 0 
0.027 0.02775 0 0 0 0 0 0 
0.003 0.02925 0 0 0 0 0 0 
0.027 0.02925 0 0 0 0 0 0 
0.009 0.01425 0 0 0 0 0 0 
0.009 0.01575 0 0 0 0 0 0 
0.009 0.01725 0 0 0 0 0 0 
0.009 0.01875 0 0 0 0 0 0 
0.009 0.02025 0 0 0 0 0 0 
0.009 0.02175 0 0 0 0 0 0 
0.009 0.02325 0 0 0 0 0 0 
0.009 0.02475 0 0 0 0 0 0 
0.009 0.02625 0 0 0 0 0 0 
0.009 0.02775 0 0 0 0 0 0 
0.009 0.02925 0 0 0 0 0 0 
0.015 0.01425 0 0 0 0 0 0 
0.015 0.01575 0 0 0 0 0 0 
0.015 0.01725 0 0 0 0 0 0 
0.015 0.01875 0 0 0 0 0 0 
0.015 0.02025 0 0 0 0 0 0 
0.015 0.02175 0 0 0 0 0 0 
0.015 0.02325 0 0 0 0 0 0 
0.015 0.02475 0 0 0 0 0 0 
0.015 0.02625 0 0 0 0 0 0 
0.015 0.02775 0 0 0 0 0 0 
0.015 0.02925 0 0 0 0 0 0 
0.021 0.02325 0 0 0 0 0 0 
0.021 0.02475 0 0 0 0 0 0 
0.021 0.02625 0 0 0 0 0 0 
0.021 0.02775 0 0 0 0 0 0 
0.021 0.02925 0 0 0 0 0 0 
0.0015 0.000375 0 0 0 0 0 0 
0.0015 0.001125 0 0 0 0 0 0 
0.0015 0.001875 0 0 0 0 0 0 
0.0015 0.002625 0 0 0 0 0 0 
0.0045 0.002625 0 0 0 0 0 0 
0.0255 0.022125 0 0 0 0 0 0 
0.0285 0.022125 0 0 0 0 0 0 
0.0105 0.000375 2.20972 5.69087e+21 3.78443e-05 2.93314 3.89818 1.94471 
0.0075 0.013125 0 0 0 0 0 0 
0.0105 0.013125 0 0 0 0 0 0 
0.0135 0.013125 0 0 0 0 0 0 
0.0165 0.013125 0 0 0 0 0 0 
0.0195 0.022125 0 0 0 0 0 0 
0.0225 0.022125 0 0 0 0 0 0 
0.00375 0.0001875 1.8074 1.35812e+22 9.03151e-05 30.9401 -2.1766 0.151893 
0.00525 0.0001875 1.90798 1.01406e+22 6.74353e-05 45.9601 1.43154 -2.68737 
0.00375 0.0020625 0 0 0 0 0 0 
0.00525 0.0020625 0 0 0 0 0 0 
0.00675 0.0001875 1.6717 6.30772e+21 4.19464e-05 59.034 7.01407 -0.927013 
0.00825 0.0001875 1.9998 5.08541e+21 3.3818e-05 40.6224 -0.865196 4.99932 
0.00825 0.0005625 1.9808 5.12062e+21 3.40521e-05 32.1977 9.19024 -2.04328 
0.00975 0.0016875 2.05182 4.4986e+21 2.99157e-05 0.405838 15.7867 -1.33656 
0.01125 0.0016875 0 0 0 0 0 0 
0.00975 0.0020625 2.00125 4.65132e+21 3.09313e-05 2.10728 14.1709 2.75524 
0.01125 0.0020625 0 0 0 0 0 0 
0.01125 0.0039375 0 0 0 0 0 0 
0.01125 0.0043125 0 0 0 0 0 0 
0.01125 0.0046875 0 0 0 0 0 0 
0.01125 0.0050625 0 0 0 0 0 0 
0.01125 0.0054375 0 0 0 0 0 0 
0.01125 0.0058125 0 0 0 0 0 0 
0.01125 0.0061875 0 0 0 0 0 0 
0.01125 0.0065625 0 0 0 0 0 0 
0.01125 0.0069375 0 0 0 0 0 0 
0.01125 0.0073125 0 0 0 0 0 0 
0.01125 0.0076875 0 0 0 0 0 0 
0.01125 0.0080625 0 0 0 0 0 0 
0.01125 0.0084375 0 0 0 0 0 0 
0.01125 0.0088125 0 0 0 0 0 0 
0.01125 0.0091875 0 0 0 0 0 0 
0.01125 0.0031875 0 0 0 0 0 0 
0.01125 0.0035625 0 0 0 0 0 0 
0.01275 0.0016875 2.05281 2.44588e+21 1.62651e-05 -0.29232 -1.20685 -2.03246 
0.01275 0.0024375 1.9851 2.43113e+21 1.6167e-05 2.02576 1.20322 -4.59583 
0.02475 0.0009375 1.97053 2.63476e+21 1.75211e-05 4.88046 1.59747 -0.749107 
0.02625 0.0009375 2.04036 2.49291e+21 1.65778e-05 3.741 -3.02493 -3.33005 
0.01575 0.0009375 1.9434 2.4084e+21 1.60159e-05 -1.96855 -3.83788 2.1737 
0.01725 0.0009375 1.94848 2.56534e+21 1.70595e-05 2.86076 0.815894 -1.94614 
0.003375 0.00046875 1.88898 1.2517e+22 8.32378e-05 28.7749 -1.07749 1.24625 
0.004125 0.00046875 1.77122 1.24827e+22 8.30096e-05 38.0182 1.90797 -2.52092 
0.003375 0.00065625 1.94379 1.26849e+22 8.43545e-05 25.8075 -0.435001 -1.89847 
0.004125 0.00065625 1.97077 1.31932e+22 8.77347e-05 34.9038 0.66791 1.9401 
0.003375 0.00084375 1.93739 1.43666e+22 9.5538e-05 28.6997 -0.775041 -3.46534 
0.004125 0.00084375 1.92748 1.22197e+22 8.12613e-05 30.5175 -5.70735 -1.52939 
0.004875 0.00084375 1.77557 1.03821e+22 6.90409e-05 39.4506 0.736051 2.23537 
0.005625 0.00084375 1.80163 9.00049e+21 5.98533e-05 47.757 1.60203 -0.0152205 
0.004875 0.00103125 1.92371 1.02833e+22 6.83841e-05 36.9363 1.06991 1.485 
0.005625 0.00103125 1.85959 9.02122e+21 5.99911e-05 40.592 2.03572 1.75987 
0.026625 0.00346875 1.97213 2.44707e+21 1.6273e-05 -2.76925 -1.37627 3.70303 
0.025875 0.00365625 2.03489 2.39277e+21 1.59119e-05 3.91123 1.45341 -4.14832 
0.026625 0.00365625 2.00148 2.5073e+21 1.66736e-05 4.78429 -4.21073 0.165473 
0.027375 0.00384375 1.88488 2.41149e+21 1.60364e-05 1.2414 -1.36813 1.91366 
0.028125 0.00403125 2.04487 2.34425e+21 1.55893e-05 6.72024 -1.60642 -3.09767 
0.025125 0.00459375 1.92017 2.35285e+21 1.56464e-05 3.21237 0.901249 -1.36938 
0.025125 0.00478125 2.03043 2.54463e+21 1.69218e-05 1.89761 -0.0138891 -1.0582 
0.027375 0.00459375 1.99757 2.55733e+21 1.70063e-05 1.21759 -0.0160935 -2.06395 
0.027375 0.00478125 2.05787 2.51622e+21 1.67329e-05 0.514217 5.07521 -0.897561 
0.024375 0.0216562 2.00912 2.60364e+21 1.73142e-05 1.7128 2.07973 1.98357 
0.025125 0.0216562 1.93926 2.47132e+21 1.64343e-05 0.442767 -3.15264 1.73817 
0.025875 0.0216562 2.0795 2.38191e+21 1.58397e-05 3.61705 2.0022 3.53436 
0.026625 0.0216562 2.04491 2.44986e+21 1.62916e-05 2.27397 -1.38532 -2.43576 
0.027375 0.0216562 2.02249 2.53927e+21 1.68861e-05 0.252902 -0.168707 1.28252 
0.028125 0.0216562 2.06535 2.51066e+21 1.66959e-05 5.65861 -2.99807 -1.78271 
0.029625 0.0216562 1.93265 2.53927e+21 1.68861e-05 -1.12499 0.974958 2.77274 
0.006375 0.00084375 1.77034 7.29697e+21 4.85249e-05 52.0279 3.24225 3.61309 
0.007125 0.00084375 1.72558 5.4459e+21 3.62153e-05 56.2622 16.4813 -0.960606 
0.006375 0.00103125 1.74594 6.74946e+21 4.48839e-05 52.3895 7.46901 -0.242916 
0.007125 0.00103125 1.74046 4.9935e+21 3.32068e-05 48.3504 15.8548 1.26644 
0.006375 0.00121875 1.82499 6.61185e+21 4.39688e-05 48.7511 6.96586 0.908831 
0.007125 0.00121875 1.68726 5.0889e+21 3.38412e-05 46.6278 19.4589 3.77652 
0.006375 0.00140625 1.8896 6.29364e+21 4.18527e-05 40.7818 8.88803 -1.86365 
0.007125 0.00140625 1.77888 4.5311e+21 3.01318e-05 39.2185 22.0636 -0.400797 
0.007875 0.00159375 1.92642 4.33179e+21 2.88064e-05 24.5845 22.1031 -0.899026 
0.008625 0.00159375 1.91086 4.29628e+21 2.85703e-05 3.07469 17.5152 0.884949 
0.007875 0.00178125 1.96826 4.04736e+21 2.6915e-05 14.0286 18.8216 0.557076 
0.008625 0.00178125 2.00346 4.1109e+21 2.73375e-05 5.58233 22.5534 0.160106 
0.006375 0.00196875 1.94781 3.16895e+21 2.10735e-05 3.03414 10.5856 -2.58579 
0.007125 0.00196875 1.85427 3.57567e+21 2.37782e-05 18.8754 16.4377 0.0903438 
0.006375 0.00215625 1.91946 2.92292e+21 1.94374e-05 6.75228 3.80227 1.52302 
0.007125 0.00215625 1.99255 3.70039e+21 2.46076e-05 3.76676 16.7372 2.23636 
0.007875 0.00253125 1.91274 3.47411e+21 2.31028e-05 0.747831 17.7064 1.15345 
0.008625 0.00253125 1.87409 3.70661e+21 2.4649e-05 0.973589 16.5516 0.074861 
0.006375 0.00271875 1.8242 3.16895e+21 2.10735e-05 -3.28605 4.20756 -1.12959 
0.006375 0.00290625 1.98824 3.29308e+21 2.1899e-05 0.271875 1.47019 0.154666 
0.007125 0.00290625 1.89075 3.36464e+21 2.23748e-05 -0.738886 9.07105 -3.21668 
0.007875 0.00290625 2.05463 3.59829e+21 2.39287e-05 -3.59918 12.4769 2.27703 
0.007875 0.00309375 1.96608 3.52289e+21 2.34272e-05 -1.58661 13.1955 -1.60239 
0.008625 0.00309375 1.98853 3.94358e+21 2.62248e-05 -1.18393 16.1019 -0.184541 
0.006375 0.00346875 1.99939 3.1873e+21 2.11956e-05 1.69491 3.92428 2.14934 
0.006375 0.00365625 2.08466 3.3895e+21 2.25402e-05 -6.5044 2.35291 -1.06234 
0.007125 0.00365625 1.95936 3.35855e+21 2.23343e-05 1.74604 12.1109 1.1972 
0.006375 0.00384375 1.96089 3.67687e+21 2.44512e-05 1.3376 3.85481 -0.615033 
0.006375 0.00403125 1.99678 3.4111e+21 2.26838e-05 -1.9199 6.72378 0.724778 
0.006375 0.00421875 2.03276 3.18404e+21 2.11739e-05 -2.15845 3.6811 0.981935 
0.006375 0.00459375 2.04125 3.34449e+21 2.22409e-05 -0.423271 1.21278 2.83537 
0.006375 0.00478125 1.9533 3.23553e+21 2.15163e-05 -2.08428 6.18237 3.23345 
0.006375 0.00496875 2.01977 3.25437e+21 2.16415e-05 -3.49415 3.79804 1.54396 
0.006375 0.00515625 1.97216 3.01256e+21 2.00335e-05 1.46086 5.09193 0.812167 
0.006375 0.00534375 2.03994 3.31588e+21 2.20506e-05 3.00241 6.38701 -3.57073 
0.006375 0.00553125 1.98519 3.30707e+21 2.1992e-05 -0.251241 5.90416 -0.281927 
0.006375 0.00590625 1.9171 3.22644e+21 2.14558e-05 -5.04401 5.8585 -0.984111 
0.006375 0.00609375 1.95577 3.24208e+21 2.15598e-05 -0.894287 8.70727 -0.70584 
0.006375 0.00628125 2.03064 3.17233e+21 2.1096e-05 0.133718 7.38761 -2.0021 
0.006375 0.00646875 1.99791 3.18863e+21 2.12044e-05 -0.481919 9.11472 0.335337 
0.006375 0.00665625 1.98206 3.18489e+21 2.11795e-05 0.123 1.44563 -0.500678 
0.006375 0.00684375 1.90467 3.16275e+21 2.10323e-05 -0.765924 1.71935 2.31063 
0.006375 0.00703125 1.87021 3.14481e+21 2.0913e-05 -1.19119 4.2051 2.36753 
0.010125 0.00684375 0 0 0 0 0 0 
0.010125 0.00703125 0 0 0 0 0 0 
0.006375 0.00815625 2.02692 2.97382e+21 1.97759e-05 3.81626 6.15193 1.00088 
0.010125 0.00834375 0 0 0 0 0 0 
0.010125 0.00853125 0 0 0 0 0 0 
0.010125 0.00871875 0 0 0 0 0 0 
0.010125 0.00890625 0 0 0 0 0 0 
0.010125 0.00909375 0 0 0 0 0 0 
0.010125 0.00928125 0 0 0 0 0 0 
0.010125 0.00946875 2.06338 2.84535e+21 1.89216e-05 2.16079 7.42249 -10.2051 
0.010875 0.00946875 1.93413 2.61964e+21 1.74206e-05 2.45793 1.53021 5.01891 
0.011625 0.00946875 1.96555 2.5444e+21 1.69203e-05 -0.243605 -4.2454 -3.27407 
0.013875 0.00309375 1.86276 2.65223e+21 1.76373e-05 4.84869 -3.09218 3.98315 
0.014625 0.00309375 2.0247 2.42907e+21 1.61533e-05 -0.188569 -1.41367 2.95408 
0.013875 0.00328125 1.98073 2.66623e+21 1.77304e-05 -1.63462 -1.8459 -1.71438 
0.014625 0.00328125 1.93967 2.48687e+21 1.65377e-05 0.187872 1.58343 -3.65318 
0.016875 0.00384375 1.94873 2.49983e+21 1.66239e-05 -1.24086 -1.83624 -1.26432 
0.017625 0.00384375 1.95315 2.34083e+21 1.55665e-05 2.2985 -1.40804 -0.553443 
0.016875 0.00403125 1.9784 2.45655e+21 1.63361e-05 -0.947402 -0.371793 -3.2072 
0.016125 0.00421875 1.90103 2.62101e+21 1.74297e-05 0.22201 2.18638 -0.408869 
0.015375 0.00440625 1.97775 2.59681e+21 1.72688e-05 -3.11199 -0.760228 1.05234 
0.016125 0.00440625 1.98076 2.46838e+21 1.64147e-05 3.01817 -4.1137 2.82013 
0.016875 0.00421875 1.98296 2.53248e+21 1.6841e-05 1.37632 -1.95306 3.56053 
0.017625 0.00421875 1.99386 2.42517e+21 1.61274e-05 -0.457901 0.649062 1.81399 
0.016875 0.00440625 1.93602 2.57369e+21 1.7115e-05 -2.73742 -0.0377138 -0.87782 
0.017625 0.00440625 1.90721 2.47352e+21 1.64489e-05 -0.486122 -1.56382 1.04255 
0.013875 0.00459375 2.03324 2.59183e+21 1.72356e-05 -3.34672 1.37801 5.20002 
0.012375 0.00721875 1.89396 2.37524e+21 1.57954e-05 -1.80154 -16.2336 -3.72962 
0.012375 0.00740625 1.68229 2.59017e+21 1.72247e-05 0.730589 -2.51581 0.923616 
0.012375 0.00796875 2.0515 2.36473e+21 1.57255e-05 7.83332 8.89889 -7.2437 
0.012375 0.00815625 1.60974 2.24793e+21 1.49487e-05 4.65123 -0.831322 13.2476 
0.012375 0.00946875 1.93782 2.64784e+21 1.76082e-05 1.21489 1.0756 -1.43478 
0.022875 0.00309375 1.99898 2.54614e+21 1.69318e-05 4.32011 0.41627 -2.57575 
0.023625 0.00309375 2.02604 2.53516e+21 1.68588e-05 3.41572 -0.150617 -1.55597 
0.022875 0.00328125 2.02139 2.62829e+21 1.74781e-05 0.507805 1.80136 1.79123 
0.023625 0.00328125 2.01018 2.56965e+21 1.70882e-05 1.58032 1.21562 -2.79969 
0.019875 0.00459375 1.94336 2.63617e+21 1.75306e-05 4.60014 -1.66065 1.4325 
0.021375 0.00496875 1.94065 2.48733e+21 1.65407e-05 3.68123 3.54825 4.11947 
0.018375 0.0150937 0 0 0 0 0 0 
0.018375 0.0152812 0 0 0 0 0 0 
0.018375 0.0165937 0 0 0 0 0 0 
0.018375 0.0167812 0 0 0 0 0 0 
0.018375 0.0173437 0 0 0 0 0 0 
0.018375 0.0175312 0 0 0 0 0 0 
0.018375 0.0177187 0 0 0 0 0 0 
0.018375 0.0179062 0 0 0 0 0 0 
0.018375 0.0195938 0 0 0 0 0 0 
0.018375 0.0197812 0 0 0 0 0 0 
0.018375 0.0199687 0 0 0 0 0 0 
0.018375 0.0201562 0 0 0 0 0 0 
0.018375 0.0207187 0 0 0 0 0 0 
0.018375 0.0209062 0 0 0 0 0 0 
0.018375 0.0210937 0 0 0 0 0 0 
0.018375 0.0212812 0 0 0 0 0 0 
0.019875 0.0216562 1.88595 2.54284e+21 1.69099e-05 -0.104398 -0.0221702 -3.2134 
0.020625 0.0216562 2.01451 2.32468e+21 1.54591e-05 -0.182468 -1.70604 0.884483 
0.021375 0.0216562 1.96138 2.54284e+21 1.69099e-05 3.33561 -1.20619 1.05421 
0.022125 0.0216562 1.96737 2.47489e+21 1.6458e-05 -2.84014 0.960821 0.577214 
0.022875 0.0216562 1.95652 2.38191e+21 1.58397e-05 0.458442 1.86201 -0.477595 
0.023625 0.0216562 1.89758 2.51066e+21 1.66959e-05 5.08733 -2.21908 0.304607 
0.01125 0.0024375 0 0 0 0 0 0 
0.01125 0.0028125 0 0 0 0 0 0 
0.02025 0.0009375 1.97948 2.51102e+21 1.66983e-05 7.65164 -5.06352 -1.40121 
0.02325 0.0009375 2.12052 2.51102e+21 1.66983e-05 0.672215 2.30954 -3.59567 
0.004875 0.00046875 1.94538 1.14203e+22 7.5945e-05 41.5543 4.02628 -0.271638 
0.005625 0.00046875 1.66563 9.51289e+21 6.32607e-05 51.4418 6.11443 -3.28716 
0.004875 0.00065625 1.86545 1.08822e+22 7.23668e-05 40.5308 1.38851 -3.16541 
0.005625 0.00065625 1.75717 9.2611e+21 6.15863e-05 48.6609 1.30744 0.914425 
0.024375 0.00309375 1.93371 2.49492e+21 1.65912e-05 -0.507367 -5.12267 2.13563 
0.025125 0.00309375 2.07566 2.56809e+21 1.70778e-05 0.60609 -0.133364 -1.53209 
0.024375 0.00328125 2.05368 2.49722e+21 1.66065e-05 5.01662 5.06734 -2.4478 
0.025125 0.00328125 2.00203 2.53861e+21 1.68818e-05 3.60222 -3.55229 1.23833 
0.025875 0.00309375 1.97825 2.45468e+21 1.63236e-05 1.41653 3.41653 -0.111457 
0.026625 0.00309375 2.03946 2.63759e+21 1.754e-05 1.7629 -0.318962 -0.00830173 
0.025875 0.00328125 2.00318 2.6007e+21 1.72946e-05 0.535961 0.578262 0.917632 
0.026625 0.00328125 2.09021 2.40409e+21 1.59872e-05 3.55149 -0.0835928 -1.71326 
0.024375 0.00346875 2.05048 2.33287e+21 1.55136e-05 0.803327 -4.44261 -0.149153 
0.025125 0.00346875 1.94636 2.54495e+21 1.69239e-05 -2.95142 1.33996 0.0304656 
0.024375 0.00365625 2.06024 2.42682e+21 1.61384e-05 1.05404 -4.38238 3.08601 
0.025125 0.00365625 2.00458 2.60636e+21 1.73323e-05 8.98011 1.99662 -1.96223 
0.024375 0.00384375 1.89269 2.47627e+21 1.64672e-05 3.71264 0.214104 3.64803 
0.025125 0.00384375 2.09186 2.46155e+21 1.63693e-05 4.25025 -1.99212 2.53178 
0.024375 0.00403125 1.8967 2.40321e+21 1.59813e-05 3.61656 -3.09597 -3.48787 
0.025125 0.00403125 1.95002 2.58289e+21 1.71762e-05 -0.619774 1.94324 3.42807 
0.024375 0.00421875 2.05173 2.55394e+21 1.69837e-05 3.9356 1.10616 1.37098 
0.024375 0.00440625 2.01772 2.43756e+21 1.62098e-05 1.67161 0.28845 -0.0643571 
0.026625 0.00421875 2.0388 2.49492e+21 1.65912e-05 1.26641 -1.30542 -0.611096 
0.028875 0.00384375 1.99074 2.52044e+21 1.67609e-05 3.33299 4.205 -2.04773 
0.029625 0.00384375 2.0372 2.57638e+21 1.7133e-05 3.27529 -1.79306 1.70238 
0.028875 0.00403125 1.99598 2.56604e+21 1.70642e-05 3.87926 -4.06641 0.840015 
0.029625 0.00403125 2.0175 2.50428e+21 1.66535e-05 2.91173 -2.83285 -5.23153 
0.027375 0.00421875 1.96861 2.53516e+21 1.68588e-05 2.74013 -2.4704 2.92708 
0.028125 0.00421875 1.93041 2.65857e+21 1.76795e-05 2.31633 4.37157 2.41902 
0.027375 0.00440625 1.98594 2.55828e+21 1.70126e-05 3.04049 2.26874 1.42456 
0.028125 0.00440625 1.95561 2.51461e+21 1.67222e-05 2.0734 0.412078 1.93175 
0.028875 0.00421875 1.98237 2.59418e+21 1.72513e-05 -0.717282 1.42055 -0.982717 
0.028875 0.00440625 2.02078 2.49406e+21 1.65855e-05 6.13964 2.51243 -1.12333 
0.029625 0.00440625 2.05525 2.50434e+21 1.66539e-05 1.21673 0.987254 -2.23127 
0.025875 0.00459375 1.98596 2.51299e+21 1.67114e-05 6.4313 1.93352 3.3521 
0.026625 0.00478125 2.03948 2.44995e+21 1.62921e-05 2.7171 -2.08988 -2.44122 
0.029625 0.00515625 2.12008 2.33762e+21 1.55451e-05 2.06349 0.114465 -0.311333 
0.007875 0.00121875 1.99411 4.31813e+21 2.87156e-05 34.2778 12.3635 -0.57135 
0.008625 0.00121875 1.88703 4.55958e+21 3.03212e-05 16.026 17.0921 2.10444 
0.007875 0.00140625 1.93614 4.24137e+21 2.82051e-05 28.4635 18.016 -3.69717 
0.008625 0.00140625 2.07011 4.48281e+21 2.98107e-05 15.0717 17.3631 1.10269 
0.006375 0.00159375 1.98605 5.42191e+21 3.60557e-05 22.4986 8.65718 3.76247 
0.007125 0.00159375 1.73499 4.11875e+21 2.73897e-05 33.5805 20.8016 -0.549057 
0.006375 0.00178125 1.88833 3.63357e+21 2.41633e-05 2.81439 13.5337 -1.2627 
0.007125 0.00178125 1.85354 3.88216e+21 2.58164e-05 18.1493 12.9533 0.315861 
0.006375 0.00309375 1.99605 3.32671e+21 2.21226e-05 -4.10676 3.86792 -3.20257 
0.006375 0.00328125 2.04192 3.35003e+21 2.22777e-05 3.94104 3.30636 0.179122 
0.007125 0.00328125 1.99765 3.34227e+21 2.22261e-05 -7.15597 9.10197 -1.22823 
0.010125 0.00646875 0 0 0 0 0 0 
0.010125 0.00665625 0 0 0 0 0 0 
0.010125 0.00721875 0 0 0 0 0 0 
0.010125 0.00740625 0 0 0 0 0 0 
0.010125 0.00759375 0 0 0 0 0 0 
0.010125 0.00778125 0 0 0 0 0 0 
0.010125 0.00796875 0 0 0 0 0 0 
0.010125 0.00815625 0 0 0 0 0 0 
0.013875 0.00384375 2.08466 2.58522e+21 1.71917e-05 -0.302339 -1.13484 0.577355 
0.013875 0.00403125 2.12432 2.56604e+21 1.70642e-05 -0.653054 -1.05581 -0.437639 
0.014625 0.00403125 1.95126 2.52393e+21 1.67841e-05 -1.07649 -1.12403 4.20694 
0.013875 0.00515625 2.04222 2.432e+21 1.61728e-05 -0.525408 3.52465 -0.695867 
0.012375 0.00534375 2.17735 2.70036e+21 1.79574e-05 -7.48065 5.76012 -4.60831 
0.012375 0.00553125 2.36369 2.82367e+21 1.87774e-05 -1.79645 5.29099 2.92315 
0.014625 0.00534375 1.93898 2.63047e+21 1.74926e-05 -0.224018 -0.0864912 1.2347 
0.016875 0.00534375 2.0633 2.48857e+21 1.6549e-05 -2.25838 -3.1367 -2.6501 
0.017625 0.00534375 2.03197 2.59658e+21 1.72673e-05 4.19418 -0.0670319 0.191981 
0.012375 0.00609375 1.85839 2.86947e+21 1.9082e-05 5.64351 -4.52573 4.56339 
0.012375 0.00628125 1.76637 2.43246e+21 1.61758e-05 -6.40745 -2.81124 2.83624 
0.012375 0.00834375 1.93993 2.44157e+21 1.62364e-05 5.3463 -7.96652 4.03977 
0.012375 0.00853125 1.79162 2.4476e+21 1.62766e-05 1.0672 1.5548 12.1288 
0.012375 0.00871875 1.91415 2.45338e+21 1.6315e-05 -8.53794 1.97464 -4.97954 
0.012375 0.00890625 2.24737 2.78296e+21 1.85067e-05 2.60436 6.16287 -1.11215 
0.012375 0.00909375 2.06612 2.33354e+21 1.55181e-05 -5.52229 -3.06607 0.88385 
0.012375 0.00928125 1.85504 2.45102e+21 1.62993e-05 -1.43971 -5.5627 2.67665 
0.021375 0.00271875 2.04281 2.37697e+21 1.58069e-05 7.84772 -1.2081 0.630737 
0.022125 0.00271875 2.02654 2.43109e+21 1.61668e-05 2.53154 0.186531 -0.939255 
0.021375 0.00290625 2.01975 2.4378e+21 1.62114e-05 -0.0971319 -1.1068 -4.62828 
0.022125 0.00290625 1.92277 2.47285e+21 1.64445e-05 3.94878 -4.05975 -1.11562 
0.018375 0.00346875 1.98414 2.60042e+21 1.72928e-05 1.9414 -2.63118 -2.05064 
0.019125 0.00346875 1.9762 2.68851e+21 1.78786e-05 1.4406 1.55226 -0.397483 
0.019125 0.00365625 1.97149 2.33086e+21 1.55002e-05 5.0881 -3.63141 -0.439859 
0.018375 0.00384375 2.03794 2.59699e+21 1.727e-05 4.93971 0.483409 -2.07761 
0.019125 0.00384375 1.97019 2.52338e+21 1.67805e-05 -0.00579746 -2.97898 0.853498 
0.018375 0.00421875 1.93926 2.33664e+21 1.55387e-05 1.50067 1.07577 0.863216 
0.019125 0.00421875 2.03598 2.47346e+21 1.64485e-05 3.55794 -2.66947 -2.39535 
0.018375 0.00440625 2.0029 2.48893e+21 1.65514e-05 1.13842 -0.519634 -2.89322 
0.019125 0.00440625 2.01966 2.51975e+21 1.67563e-05 0.307025 2.08955 2.10066 
0.021375 0.00384375 2.0447 2.45566e+21 1.63301e-05 1.23908 0.50352 3.1994 
0.022125 0.00384375 2.04548 2.57933e+21 1.71525e-05 2.34277 3.25734 -1.49009 
0.021375 0.00403125 1.99339 2.51832e+21 1.67468e-05 -0.179706 1.32982 -1.91481 
0.022875 0.00384375 1.93783 2.47333e+21 1.64476e-05 2.42205 -1.32112 0.667999 
0.023625 0.00384375 1.94681 2.33788e+21 1.55469e-05 1.68634 1.45259 -1.36671 
0.022875 0.00403125 2.04134 2.56324e+21 1.70455e-05 1.76109 -0.373635 1.32004 
0.023625 0.00403125 2.09955 2.52674e+21 1.68028e-05 2.16194 -0.0600442 -3.76172 
0.021375 0.00421875 2.02896 2.6371e+21 1.75367e-05 2.55385 1.92906 2.5192 
0.022875 0.00421875 2.00459 2.57272e+21 1.71086e-05 0.787061 -1.87938 -0.300813 
0.018375 0.00496875 1.95965 2.60122e+21 1.72981e-05 0.544448 -3.57961 -0.108777 
0.022125 0.00459375 1.9873 2.50067e+21 1.66295e-05 -0.623016 2.45148 -4.09406 
0.021375 0.00478125 1.95706 2.50202e+21 1.66384e-05 1.64806 1.6726 -2.95736 
0.022875 0.00459375 2.03273 2.43908e+21 1.62199e-05 4.06185 -1.31719 1.28971 
0.022875 0.00478125 1.95143 2.54936e+21 1.69533e-05 4.53134 2.71215 -1.24379 
0.023625 0.00478125 1.92973 2.48545e+21 1.65283e-05 1.98446 -1.97656 1.67262 
0.020625 0.00534375 2.00063 2.46951e+21 1.64222e-05 0.715859 -0.685418 -3.69882 
0.018375 0.0132188 0 0 0 0 0 0 
0.018375 0.0134063 0 0 0 0 0 0 
0.018375 0.0135938 0 0 0 0 0 0 
0.018375 0.0137813 0 0 0 0 0 0 
0.018375 0.0139688 0 0 0 0 0 0 
0.018375 0.0141563 0 0 0 0 0 0 
0.018375 0.0143437 0 0 0 0 0 0 
0.018375 0.0145312 0 0 0 0 0 0 
0.018375 0.0147187 0 0 0 0 0 0 
0.018375 0.0149062 0 0 0 0 0 0 
0.018375 0.0154687 0 0 0 0 0 0 
0.018375 0.0156563 0 0 0 0 0 0 
0.018375 0.0158438 0 0 0 0 0 0 
0.018375 0.0160313 0 0 0 0 0 0 
0.018375 0.0162188 0 0 0 0 0 0 
0.018375 0.0164062 0 0 0 0 0 0 
0.018375 0.0180937 0 0 0 0 0 0 
0.018375 0.0182812 0 0 0 0 0 0 
0.018375 0.0184687 0 0 0 0 0 0 
0.018375 0.0186562 0 0 0 0 0 0 
0.018375 0.0188437 0 0 0 0 0 0 
0.018375 0.0190312 0 0 0 0 0 0 
0.018375 0.0192187 0 0 0 0 0 0 
0.018375 0.0194062 0 0 0 0 0 0 
0.018375 0.0203437 0 0 0 0 0 0 
0.018375 0.0205312 0 0 0 0 0 0 
0.009375 0.00309375 2.04048 4.00163e+21 2.66109e-05 -0.23719 15.3174 -0.237605 
0.010125 0.00309375 0 0 0 0 0 0 
0.009375 0.00328125 2.06132 3.65583e+21 2.43112e-05 -0.660996 12.5556 -2.16091 
0.010125 0.00328125 0 0 0 0 0 0 
0.0249375 0.00773437 1.82054 2.59296e+21 1.72432e-05 5.71387 4.47297 -6.85173 
0.0253125 0.00773437 1.94029 2.48175e+21 1.65036e-05 7.17335 0.654902 0.769566 
0.0249375 0.00782813 2.05243 2.27275e+21 1.51138e-05 7.7495 1.73317 1.26991 
0.0253125 0.00782813 1.85402 2.30167e+21 1.53061e-05 -1.88205 -3.41549 -0.681524 
0.0286875 0.00773437 1.93089 2.50516e+21 1.66593e-05 4.52591 -2.66983 0.997136 
0.0290625 0.00773437 2.11542 2.2886e+21 1.52192e-05 1.67721 5.46574 -2.82582 
0.0286875 0.00782813 2.01436 2.61396e+21 1.73828e-05 2.60753 5.42471 -1.76047 
0.0290625 0.00782813 1.8754 2.52721e+21 1.68059e-05 0.629987 -0.0770468 -5.21054 
0.0241875 0.00979687 1.90534 2.36592e+21 1.57334e-05 2.58935 -5.75061 -2.95743 
0.0245625 0.00979687 2.03669 2.49531e+21 1.65938e-05 4.81079 -3.50942 -0.766478 
0.0241875 0.00989062 1.95127 2.6227e+21 1.74409e-05 3.31322 4.61835 -1.38885 
0.0245625 0.00989062 2.03373 2.60897e+21 1.73496e-05 2.05336 4.03791 4.28579 
0.0264375 0.0111094 1.9175 2.40018e+21 1.59612e-05 5.88963 -1.0637 -1.01911 
0.0268125 0.0111094 2.21567 2.2983e+21 1.52837e-05 3.15038 -0.689282 -0.664719 
0.0264375 0.0112031 2.13034 2.47707e+21 1.64725e-05 -0.236587 1.27025 4.06698 
0.0268125 0.0112031 2.00324 2.41242e+21 1.60426e-05 -0.151409 -0.19897 0.178172 
0.0256875 0.0116719 2.04181 2.55989e+21 1.70233e-05 3.81652 -1.71182 -3.18886 
0.0260625 0.0116719 1.93401 2.43189e+21 1.61721e-05 -0.916079 -1.60419 3.01875 
0.0256875 0.0117656 2.03151 2.6126e+21 1.73738e-05 2.455 -0.987695 -3.34557 
0.0260625 0.0117656 1.98907 2.55103e+21 1.69644e-05 2.54179 -0.263138 -3.6392 
0.0279375 0.0114844 1.95255 2.64898e+21 1.76158e-05 1.7687 -2.48451 0.00537492 
0.0283125 0.0114844 1.9517 2.58197e+21 1.71701e-05 4.76868 0.0914708 -0.748584 
0.0279375 0.0115781 1.9562 2.52979e+21 1.68231e-05 0.353412 0.595808 4.53883 
0.0283125 0.0115781 1.99446 2.48677e+21 1.65371e-05 2.23765 -3.19788 -3.78778 
0.0294375 0.0122344 2.03441 2.45329e+21 1.63144e-05 0.173748 1.02194 1.43764 
0.0298125 0.0122344 1.95869 2.41999e+21 1.60929e-05 -3.12916 2.09538 0.338221 
0.0294375 0.0123281 2.00561 2.4787e+21 1.64834e-05 2.00705 -2.96014 0.215543 
0.0298125 0.0123281 2.00092 2.46769e+21 1.64101e-05 5.55443 -1.61626 1.65118 
0.0286875 0.0124219 2.00319 2.60213e+21 1.73042e-05 -2.61089 -1.6672 0.49509 
0.0290625 0.0124219 1.91063 2.68595e+21 1.78616e-05 0.640841 -0.398226 0.718985 
0.0286875 0.0125156 2.02976 2.46689e+21 1.64048e-05 2.2046 -1.68332 0.416941 
0.0290625 0.0125156 2.03737 2.44519e+21 1.62605e-05 -0.231057 -3.4902 0.82631 
0.0241875 0.0127969 2.00549 2.59309e+21 1.72441e-05 -1.95259 -2.73303 4.31184 
0.0245625 0.0127969 2.06221 2.52941e+21 1.68206e-05 0.917983 1.96192 -2.24794 
0.0241875 0.0128906 1.98673 2.5637e+21 1.70486e-05 1.35102 2.84406 0.622812 
0.0245625 0.0128906 1.85412 2.4759e+21 1.64647e-05 -1.72224 -0.303074 3.70546 
0.0264375 0.0127969 1.91667 2.5471e+21 1.69382e-05 -2.65704 -2.03131 4.29869 
0.0268125 0.0127969 2.08573 2.62139e+21 1.74323e-05 -2.41158 -3.63327 3.19682 
0.0264375 0.0128906 1.97193 2.40566e+21 1.59976e-05 2.95019 3.61118 1.33594 
0.0268125 0.0128906 1.99453 2.38108e+21 1.58342e-05 0.2021 0.159892 -0.0364194 
0.0249375 0.0131719 2.0414 2.47459e+21 1.6456e-05 2.15131 7.93773 -1.6092 
0.0253125 0.0131719 1.99113 2.53301e+21 1.68445e-05 -2.35494 0.979892 0.707264 
0.0249375 0.0132656 2.02 2.60043e+21 1.72928e-05 -1.00739 0.0141792 -1.13448 
0.0253125 0.0132656 2.06122 2.51852e+21 1.67482e-05 0.612352 -1.09615 4.22708 
0.0264375 0.0133594 1.96495 2.47035e+21 1.64278e-05 0.222134 1.52863 2.41466 
0.0268125 0.0133594 1.97928 2.73128e+21 1.8163e-05 2.36611 1.32412 -0.495609 
0.0264375 0.0134531 2.00373 2.53726e+21 1.68728e-05 1.00437 -2.30489 -0.316588 
0.0268125 0.0134531 2.07205 2.57092e+21 1.70966e-05 4.43254 -0.480123 -1.00225 
0.0279375 0.0131719 2.01135 2.45396e+21 1.63189e-05 1.87788 -0.99607 1.9734 
0.0283125 0.0131719 1.9662 2.5502e+21 1.69588e-05 3.80955 4.3693 1.25258 
0.0279375 0.0132656 2.16339 2.539e+21 1.68844e-05 -5.35037 5.32634 3.29546 
0.0283125 0.0132656 1.99757 2.49464e+21 1.65893e-05 -2.0786 -2.14234 0.229173 
0.0294375 0.0131719 1.90784 2.2993e+21 1.52904e-05 1.62082 -2.16658 1.25654 
0.0298125 0.0131719 2.11241 2.64299e+21 1.75759e-05 1.56448 0.574874 -3.708 
0.0294375 0.0132656 2.00967 2.63114e+21 1.74971e-05 0.300386 0.302772 6.97029 
0.0298125 0.0132656 1.98428 2.4844e+21 1.65212e-05 0.219612 6.91976 0.367367 
0.0286875 0.0133594 2.00936 2.26364e+21 1.50532e-05 -0.767551 0.0876584 -0.0405865 
0.0290625 0.0133594 1.98826 2.51102e+21 1.66983e-05 2.97434 -0.554568 1.0027 
0.0286875 0.0134531 1.94702 2.54063e+21 1.68952e-05 -1.41508 -0.32605 1.29208 
0.0290625 0.0134531 1.94832 2.37574e+21 1.57987e-05 1.85067 -0.727951 0.123805 
0.0268125 0.0135469 2.01704 2.69348e+21 1.79116e-05 -0.439754 1.10379 1.24314 
0.0264375 0.0136406 2.04833 2.51898e+21 1.67512e-05 -2.08042 0.173267 -0.116828 
0.0268125 0.0136406 1.96364 2.53558e+21 1.68616e-05 -2.81124 -2.055 -1.29066 
0.0264375 0.0139219 2.00168 2.53313e+21 1.68453e-05 2.48834 -0.638908 0.443378 
0.0264375 0.0140156 1.92113 2.4645e+21 1.6389e-05 4.49283 -0.352594 1.02645 
0.0268125 0.0140156 1.97381 2.61309e+21 1.7377e-05 1.16038 -1.64995 2.85714 
0.0271875 0.0135469 1.99054 2.60659e+21 1.73338e-05 1.80955 -6.5027 -1.29652 
0.0275625 0.0135469 1.92244 2.59657e+21 1.72672e-05 -3.15433 4.75618 2.57659 
0.0271875 0.0136406 1.94419 2.54221e+21 1.69057e-05 -2.06348 1.80377 4.76265 
0.0279375 0.0141094 2.01477 2.54439e+21 1.69202e-05 -1.7132 -1.65216 4.4808 
0.0283125 0.0141094 2.05368 2.39679e+21 1.59387e-05 -0.315372 1.73877 -1.41724 
0.0279375 0.0142031 1.83627 2.83039e+21 1.88221e-05 -2.02485 -4.8347 -1.60183 
0.0283125 0.0142031 1.84635 2.46384e+21 1.63846e-05 4.70681 -3.0117 2.97534 
0.0286875 0.0139219 2.01858 2.57865e+21 1.7148e-05 -3.55867 1.79551 1.10892 
0.0290625 0.0139219 2.08874 2.4746e+21 1.64561e-05 0.205246 2.73454 -4.00033 
0.0286875 0.0140156 1.90678 2.38375e+21 1.5852e-05 0.118582 -3.99199 -8.23102 
0.0290625 0.0140156 2.05692 2.42574e+21 1.61312e-05 0.699447 -0.108854 -0.603656 
0.0294375 0.0141094 2.12003 2.48342e+21 1.65148e-05 -0.559565 1.75755 -1.93493 
0.0298125 0.0141094 2.10562 2.55722e+21 1.70055e-05 0.595322 -2.3537 0.986736 
0.0294375 0.0142031 2.00295 2.38097e+21 1.58335e-05 2.04021 1.53927 -3.05007 
0.0298125 0.0142031 2.05359 2.48297e+21 1.65117e-05 0.966887 0.99519 4.91432 
0.0249375 0.0142969 1.96779 2.40969e+21 1.60244e-05 1.97173 1.6962 -2.21567 
0.0253125 0.0142969 1.96103 2.50785e+21 1.66772e-05 -1.45112 4.08462 0.387291 
0.0249375 0.0143906 1.9753 2.55758e+21 1.70079e-05 1.25003 4.4777 1.59187 
0.0253125 0.0143906 2.0509 2.51983e+21 1.67568e-05 2.02269 -1.30554 3.74276 
0.0241875 0.0144844 1.96296 2.67229e+21 1.77707e-05 -2.37242 -0.0912591 3.18513 
0.0245625 0.0144844 2.03127 2.52539e+21 1.67939e-05 -1.28532 0.331014 -0.345779 
0.0241875 0.0145781 2.02918 2.54642e+21 1.69337e-05 3.37604 -1.5541 3.52517 
0.0245625 0.0145781 1.88553 2.6489e+21 1.76152e-05 -3.70241 -6.33444 3.52787 
0.0249375 0.0144844 2.16252 2.38162e+21 1.58378e-05 0.683316 0.199597 2.52789 
0.0253125 0.0144844 2.01292 2.48164e+21 1.65029e-05 -1.89671 0.6705 -3.32359 
0.0249375 0.0145781 1.93429 2.53089e+21 1.68304e-05 -0.628156 0.188113 1.57383 
0.0256875 0.0142969 1.9802 2.58385e+21 1.71826e-05 1.12178 -4.01125 -1.2761 
0.0260625 0.0142969 2.12562 2.52052e+21 1.67614e-05 3.45185 0.373269 -4.37276 
0.0256875 0.0143906 2.00045 2.46005e+21 1.63594e-05 -0.148438 0.507946 -0.554086 
0.0241875 0.0146719 1.99562 2.44684e+21 1.62715e-05 1.12931 -0.224211 0.488617 
0.0245625 0.0146719 2.06006 2.57026e+21 1.70922e-05 1.30518 2.13365 0.99173 
0.0241875 0.0147656 2.02653 2.52635e+21 1.68002e-05 0.910214 -2.97758 -0.370214 
0.0249375 0.0146719 1.9242 2.46535e+21 1.63946e-05 -2.63462 0.274182 -0.149395 
0.0253125 0.0146719 2.08792 2.48386e+21 1.65177e-05 -2.27696 0.726406 -3.51172 
0.0249375 0.0147656 1.90535 2.4405e+21 1.62293e-05 0.472289 1.25538 2.62482 
0.0253125 0.0147656 1.94374 2.37918e+21 1.58216e-05 2.40032 0.951102 -1.54789 
0.0241875 0.0148594 2.01492 2.37331e+21 1.57825e-05 1.5577 -3.16737 -1.01759 
0.0245625 0.0148594 1.94007 2.54697e+21 1.69373e-05 1.90601 1.63161 1.41328 
0.0241875 0.0149531 1.94694 2.33724e+21 1.55426e-05 -2.00208 -2.51612 -3.28836 
0.0245625 0.0149531 1.91693 2.52797e+21 1.6811e-05 -0.157454 0.594634 2.03623 
0.0264375 0.0148594 2.05966 2.5622e+21 1.70386e-05 -0.945381 -1.84624 -0.715472 