ITEM: TIMESTEP
500000
ITEM: NUMBER OF CELLS
8114
ITEM: BOX BOUNDS oo ao pp
0 0.12
0 0.03
-0.1 0.1
ITEM: CELLS xc yc f_out[1] f_out[2] f_out[3] f_out[4] f_out[5] f_out[6] 
0.003 0.00225 1.86455 2.31759e+21 1.5412e-05 8.95662 -2.02655 0.658503 
0.003 0.00375 0 0 0 0 0 0 
0.003 0.00525 0 0 0 0 0 0 
0.003 0.00675 0 0 0 0 0 0 
0.003 0.00825 0 0 0 0 0 0 
0.003 0.00975 0 0 0 0 0 0 
0.003 0.01125 0 0 0 0 0 0 
0.003 0.01275 0 0 0 0 0 0 
0.003 0.01425 0 0 0 0 0 0 
0.003 0.01575 0 0 0 0 0 0 
0.003 0.01725 0 0 0 0 0 0 
0.003 0.01875 0 0 0 0 0 0 
0.003 0.02025 0 0 0 0 0 0 
0.003 0.02175 0 0 0 0 0 0 
0.003 0.02325 0 0 0 0 0 0 
0.027 0.02325 0 0 0 0 0 0 
0.003 0.02475 0 0 0 0 0 0 
0.027 0.02475 0 0 0 0 0 0 
0.003 0.02625 0 0 0 0 0 0 
0.027 0.02625 0 0 0 0 0 0 
0.003 0.02775 0 0 0 0 0 0 
0.027 0.02775 0 0 0 0 0 0 
0.003 0.02925 0 0 0 0 0 0 
0.027 0.02925 0 0 0 0 0 0 
0.009 0.01425 0 0 0 0 0 0 
0.009 0.01575 0 0 0 0 0 0 
0.009 0.01725 0 0 0 0 0 0 
0.009 0.01875 0 0 0 0 0 0 
0.009 0.02025 0 0 0 0 0 0 
0.009 0.02175 0 0 0 0 0 0 
0.009 0.02325 0 0 0 0 0 0 
0.009 0.02475 0 0 0 0 0 0 
0.009 0.02625 0 0 0 0 0 0 
0.009 0.02775 0 0 0 0 0 0 
0.009 0.02925 0 0 0 0 0 0 
0.015 0.01425 0 0 0 0 0 0 
0.015 0.01575 0 0 0 0 0 0 
0.015 0.01725 0 0 0 0 0 0 
0.015 0.01875 0 0 0 0 0 0 
0.015 0.02025 0 0 0 0 0 0 
0.015 0.02175 0 0 0 0 0 0 
0.015 0.02325 0 0 0 0 0 0 
0.015 0.02475 0 0 0 0 0 0 
0.015 0.02625 0 0 0 0 0 0 
0.015 0.02775 0 0 0 0 0 0 
0.015 0.02925 0 0 0 0 0 0 
0.021 0.02325 0 0 0 0 0 0 
0.021 0.02475 0 0 0 0 0 0 
0.021 0.02625 0 0 0 0 0 0 
0.021 0.02775 0 0 0 0 0 0 
0.021 0.02925 0 0 0 0 0 0 
0.0015 0.000375 0 0 0 0 0 0 
0.0045 0.000375 1.91336 2.17524e+21 1.44654e-05 21.1 3.83839 0.291531 
0.0015 0.001125 0 0 0 0 0 0 
0.0255 0.022125 0 0 0 0 0 0 
0.0285 0.022125 0 0 0 0 0 0 
0.0105 0.001875 2.10924 9.41717e+20 6.26242e-06 -1.39428 0.233382 -4.76249 
0.0105 0.002625 1.96772 9.12126e+20 6.06564e-06 2.60205 10.2817 -2.20388 
0.0105 0.003375 2.02498 8.04339e+20 5.34885e-06 -3.43086 4.94447 1.76138 
0.0105 0.004125 1.97175 7.84279e+20 5.21545e-06 -0.813088 5.98877 2.27257 
0.0105 0.004875 1.92321 7.56429e+20 5.03025e-06 -0.971651 7.17619 2.32872 
0.0105 0.005625 1.94939 7.11804e+20 4.7335e-06 -0.0220712 4.87102 1.89944 
0.0105 0.007875 1.99998 6.59944e+20 4.38863e-06 -1.3881 0.678223 -3.09668 
0.0075 0.013125 0 0 0 0 0 0 
0.0105 0.013125 0 0 0 0 0 0 
0.0135 0.013125 0 0 0 0 0 0 
0.0165 0.013125 0 0 0 0 0 0 
0.0195 0.022125 0 0 0 0 0 0 
0.0225 0.022125 0 0 0 0 0 0 
0.0195 0.001875 1.95033 5.77579e+20 3.8409e-06 1.84554 3.13138 0.263809 
0.00375 0.0009375 2.05143 2.53105e+21 1.68315e-05 17.8608 -1.58729 0.559645 
0.00525 0.0009375 1.91804 2.05227e+21 1.36476e-05 27.5736 -0.255353 -2.06758 
0.00375 0.0013125 2.03214 2.40317e+21 1.59811e-05 16.2207 -0.302176 2.33954 
0.00525 0.0013125 2.00426 1.94233e+21 1.29165e-05 16.7141 -2.31298 0.192343 
0.00675 0.0031875 2.08146 8.01211e+20 5.32805e-06 -0.601429 8.77137 0.801915 
0.00825 0.0031875 1.89558 7.42973e+20 4.94077e-06 -1.19265 10.7406 -0.891932 
0.00675 0.0035625 1.98984 7.29304e+20 4.84987e-06 -2.73996 7.32548 0.771238 
0.00825 0.0035625 2.0011 7.81516e+20 5.19708e-06 -1.40439 4.76564 -0.851226 
0.00675 0.0054375 1.9831 6.66505e+20 4.43226e-06 2.12103 4.45158 1.34926 
0.00675 0.0058125 1.98055 7.05411e+20 4.69098e-06 0.634794 2.03978 -0.91015 
0.01275 0.0091875 1.95287 5.78588e+20 3.84761e-06 -0.0785292 -0.160131 -1.48879 
0.01875 0.0144375 1.94713 5.76173e+20 3.83155e-06 1.42791 0.974748 1.05133 
0.01875 0.0148125 1.97301 6.16981e+20 4.10292e-06 1.7268 2.17898 2.31339 
0.01875 0.0151875 1.99164 5.71939e+20 3.80339e-06 2.60204 -2.59544 2.42877 
0.01875 0.0155625 1.99176 5.624e+20 3.73996e-06 1.50356 -0.98648 1.86465 
0.01875 0.0166875 1.93051 5.37484e+20 3.57427e-06 2.8648 -0.507636 -2.59597 
0.01875 0.0170625 1.94754 5.5552e+20 3.69421e-06 -0.931031 2.3808 0.816773 
0.01875 0.0178125 2.00861 5.90373e+20 3.92598e-06 -1.29863 -0.465894 -0.510405 
0.01875 0.0181875 1.99776 5.76126e+20 3.83124e-06 -1.75347 -1.59807 0.870382 
0.01875 0.0215625 1.96568 5.6512e+20 3.75805e-06 2.79042 -4.13514 -4.27644 
0.0075 0.000375 2.05786 1.20156e+21 7.99038e-06 22.3439 4.12092 -0.0626242 
0.0105 0.000375 1.94209 1.01432e+21 6.74523e-06 -8.72136 1.56934 5.38742 
0.0105 0.001125 1.96431 1.03567e+21 6.88724e-06 4.89518 7.90363 2.91065 
0.0135 0.001875 1.98641 5.56535e+20 3.70096e-06 0.268244 -2.15401 1.33931 
0.00675 0.0016875 1.89024 9.79854e+20 6.51603e-06 15.2565 8.12727 -3.85592 
0.00825 0.0016875 2.00112 9.08768e+20 6.04331e-06 10.56 6.39782 6.42674 
0.00675 0.0020625 1.97192 8.76785e+20 5.83062e-06 6.33221 9.01895 -4.74342 
0.00825 0.0020625 2.01772 8.61516e+20 5.72908e-06 5.90882 10.5733 1.39549 
0.00675 0.0024375 1.88492 8.08514e+20 5.37662e-06 2.55213 5.47377 0.413101 
0.00825 0.0024375 1.94775 8.63626e+20 5.74312e-06 3.16931 9.01919 2.30452 
0.00675 0.0028125 1.92194 7.75507e+20 5.15712e-06 -0.215162 8.1942 -0.510801 
0.00825 0.0028125 1.97933 7.97771e+20 5.30518e-06 0.0805753 8.06832 0.0831817 
0.01875 0.0136875 2.05382 5.78804e+20 3.84905e-06 -1.07041 -0.181599 -0.103991 
0.01875 0.0140625 1.96557 5.61357e+20 3.73303e-06 -4.00669 2.58513 -2.49139 
0.01275 0.0069375 1.99469 5.62825e+20 3.74279e-06 -0.244797 -3.51037 0.580915 
0.01275 0.0073125 1.85989 5.69512e+20 3.78725e-06 3.1214 -1.18961 0.58813 
0.01875 0.0046875 2.00803 5.66186e+20 3.76514e-06 3.57585 4.56471 0.649012 
0.01875 0.0050625 1.92408 6.187e+20 4.11436e-06 0.803154 1.66873 0.055154 
0.02025 0.0050625 2.00768 5.73988e+20 3.81702e-06 -1.1321 -0.243583 -0.215096 
0.024375 0.0165937 1.92718 5.42908e+20 3.61034e-06 -2.04733 -2.01879 -3.68317 
0.025125 0.0165937 2.1231 5.42908e+20 3.61034e-06 -0.372263 -2.2604 3.81045 
0.024375 0.0167812 2.14539 5.92145e+20 3.93776e-06 -2.42212 0.19505 -2.94733 
0.025125 0.0167812 2.0399 5.73935e+20 3.81667e-06 -1.0048 -1.18519 2.15135 
0.028875 0.0173437 1.97762 5.67067e+20 3.771e-06 -0.519854 -0.830673 1.00234 
0.029625 0.0173437 2.06516 5.63804e+20 3.7493e-06 4.13976 -3.05829 -0.64126 
0.028875 0.0175312 1.97172 5.85534e+20 3.8938e-06 1.58825 -3.42582 -2.02375 
0.029625 0.0175312 1.97275 5.56483e+20 3.70061e-06 0.725368 0.215523 0.261218 
0.028875 0.0184687 1.98073 5.47845e+20 3.64317e-06 0.704026 3.56831 -0.164629 
0.029625 0.0184687 1.96635 5.81549e+20 3.8673e-06 -0.815173 -0.786459 0.262296 
0.028875 0.0186562 1.96471 5.48405e+20 3.6469e-06 -0.557368 -2.95062 -0.202453 
0.029625 0.0186562 2.04651 5.9997e+20 3.9898e-06 1.25579 -1.40971 2.64956 
0.028875 0.0188437 2.00746 5.74781e+20 3.82229e-06 2.53723 1.25895 -0.14162 
0.029625 0.0188437 1.95771 5.58564e+20 3.71445e-06 0.657023 -0.0283673 1.60829 
0.028875 0.0190312 1.92775 5.56035e+20 3.69763e-06 -0.275188 -0.119705 2.13355 
0.029625 0.0190312 2.00851 5.56035e+20 3.69763e-06 0.867678 1.94458 -2.18435 
0.028875 0.0210937 2.03383 5.44054e+20 3.61796e-06 1.60037 -0.481709 -0.745375 
0.028875 0.0212812 2.06147 5.8606e+20 3.8973e-06 2.05841 0.353676 0.565027 
0.029625 0.0212812 2.01122 5.62128e+20 3.73815e-06 2.388 -3.07794 0.886181 
0.023625 0.0192187 2.00132 5.57677e+20 3.70855e-06 0.636589 2.16544 1.55141 
0.022875 0.0194062 2.03467 5.67452e+20 3.77355e-06 1.0336 0.146753 0.767945 
0.023625 0.0194062 1.99744 5.94862e+20 3.95583e-06 0.142909 0.560873 -0.738856 
0.022875 0.0154687 1.98335 5.20934e+20 3.46421e-06 1.48253 1.3646 0.846895 
0.023625 0.0154687 2.00907 5.85319e+20 3.89237e-06 -3.69308 -1.20572 1.19369 
0.022875 0.0156563 2.05045 5.6096e+20 3.73038e-06 4.01102 0.523929 -2.12716 
0.023625 0.0156563 2.05754 6.01441e+20 3.99958e-06 -0.708053 -0.936124 -1.37716 
0.021375 0.0199687 2.01743 6.09278e+20 4.0517e-06 2.10232 -0.106106 -1.07622 
0.022125 0.0199687 2.04143 5.44099e+20 3.61826e-06 -0.174286 -4.22454 0.551163 
0.021375 0.0201562 1.97293 5.88449e+20 3.91319e-06 -4.63744 -0.85464 2.46644 
0.00675 0.0039375 2.08505 7.97627e+20 5.30422e-06 1.24442 1.99987 0.631045 
0.00675 0.0043125 2.06697 7.26557e+20 4.8316e-06 1.4905 4.29756 3.68601 
0.00675 0.0046875 1.93524 7.51888e+20 5.00005e-06 3.59693 4.03252 -0.060844 
0.00675 0.0050625 1.99384 7.10772e+20 4.72664e-06 0.759498 1.06455 -2.03382 
0.00825 0.0050625 2.03138 7.29362e+20 4.85026e-06 -1.97755 3.13083 2.74344 
0.00975 0.0091875 1.94526 6.46725e+20 4.30072e-06 2.62615 1.60361 1.80016 
0.01125 0.0091875 0 0 0 0 0 0 
0.01275 0.0076875 1.8933 5.72785e+20 3.80902e-06 -2.26212 0.150861 0.560769 
0.01275 0.0080625 2.04124 5.85624e+20 3.8944e-06 2.71668 -3.09037 -0.683818 
0.01875 0.0129375 1.86439 5.57683e+20 3.70859e-06 0.860133 -0.313597 -1.62232 
0.01875 0.0133125 2.04714 5.99359e+20 3.98574e-06 1.071 -0.479278 -2.22651 
0.01875 0.0163125 2.01236 5.8453e+20 3.88713e-06 -2.44185 -0.153536 1.45255 
0.02775 0.0046875 1.98134 5.84898e+20 3.88957e-06 4.81612 -0.259446 -0.181086 
0.02925 0.0046875 1.99816 5.76447e+20 3.83338e-06 4.1681 0.103299 -1.61186 
0.02625 0.0061875 1.95554 5.88062e+20 3.91061e-06 1.58504 -0.207221 -3.38803 
0.01275 0.0061875 2.05092 6.0018e+20 3.9912e-06 -1.85683 -0.0152569 -1.07272 
0.025875 0.0162188 1.94074 5.62439e+20 3.74022e-06 2.05308 1.86577 0.895944 
0.026625 0.0162188 2.15174 5.48482e+20 3.64741e-06 0.788343 0.10162 -2.47208 
0.025875 0.0164062 2.0391 5.70498e+20 3.79381e-06 -0.753201 2.30912 0.330292 
0.026625 0.0164062 1.93464 5.5808e+20 3.71123e-06 2.89129 -2.39071 -2.17553 
0.025875 0.0188437 1.97578 6.20427e+20 4.12584e-06 0.441642 -1.19094 -0.276362 
0.026625 0.0188437 1.99875 5.95201e+20 3.95809e-06 1.40461 -0.338667 -0.233729 
0.025875 0.0190312 1.91905 5.53656e+20 3.68181e-06 0.498518 -1.84766 -2.64792 
0.026625 0.0190312 2.01465 5.71497e+20 3.80045e-06 4.01789 -0.907528 2.88022 
0.027375 0.0188437 2.00504 5.33339e+20 3.5467e-06 -2.53442 -1.08592 2.03271 
0.028125 0.0188437 2.09815 5.81988e+20 3.87022e-06 4.54693 -2.26045 0.110217 
0.027375 0.0190312 1.98168 5.82796e+20 3.87559e-06 2.56263 2.773 3.26509 
0.028875 0.0192187 2.01005 5.65921e+20 3.76337e-06 -0.78639 2.09273 2.55994 
0.029625 0.0192187 2.08573 5.76521e+20 3.83386e-06 -0.389886 1.67481 2.6843 
0.028875 0.0194062 2.04558 5.762e+20 3.83173e-06 -0.4668 3.56178 1.72939 
0.029625 0.0194062 1.97584 5.58704e+20 3.71538e-06 -0.850519 -0.257563 -4.20835 
0.024375 0.0199687 1.96993 5.59969e+20 3.72379e-06 -0.576579 0.372697 -0.87223 
0.024375 0.0201562 2.04999 5.39599e+20 3.58833e-06 -3.41539 1.38322 -0.523495 
0.025125 0.0201562 2.04434 5.5869e+20 3.71529e-06 0.777895 -3.96579 0.667304 
0.025875 0.0209062 1.97286 5.71129e+20 3.79801e-06 3.46662 -1.18436 -1.30959 
0.026625 0.0209062 1.99311 5.6788e+20 3.77641e-06 0.487725 -4.23644 1.17105 
0.027375 0.0210937 1.99027 5.78392e+20 3.84631e-06 4.78771 2.14666 3.09301 
0.022875 0.0162188 1.89147 5.8756e+20 3.90727e-06 -2.00377 0.310999 1.83907 
0.023625 0.0162188 2.06573 5.95236e+20 3.95832e-06 -3.21711 1.32088 3.36178 
0.022875 0.0164062 1.93192 5.87744e+20 3.90849e-06 2.28515 -0.536104 -2.34791 
0.023625 0.0164062 1.91472 5.73257e+20 3.81216e-06 -4.36484 1.7214 0.129235 
0.020625 0.0199687 2.03253 5.66203e+20 3.76525e-06 0.800944 1.96346 1.94107 
0.020625 0.0201562 2.03471 5.68236e+20 3.77877e-06 1.60783 2.7283 0.68282 
0.022875 0.0210937 1.92383 5.55858e+20 3.69645e-06 -1.04222 -1.49159 -1.19229 
0.023625 0.0210937 1.95156 5.82148e+20 3.87129e-06 0.946469 3.0067 1.33821 
0.024375 0.0177187 1.99216 5.66563e+20 3.76764e-06 0.511223 0.516559 0.547186 
0.025125 0.0177187 1.9128 6.13191e+20 4.07772e-06 3.1194 -2.03855 0.350617 
0.024375 0.0179062 2.04598 5.62526e+20 3.7408e-06 2.47386 1.35123 -3.98261 
0.025125 0.0179062 2.02828 5.71375e+20 3.79965e-06 2.07336 -1.54895 4.06247 
0.021375 0.0169687 2.13262 5.65592e+20 3.76119e-06 0.830438 1.11037 -3.18382 
0.022125 0.0169687 2.00901 5.68927e+20 3.78337e-06 3.43369 -1.07824 3.77819 
0.021375 0.0171562 2.0523 5.54134e+20 3.68499e-06 2.94186 -0.13779 -2.14198 
0.022125 0.0171562 1.96749 5.67987e+20 3.77711e-06 0.355122 2.21796 1.33064 
0.019875 0.0188437 1.97989 6.02409e+20 4.00602e-06 -2.63164 1.29 -2.22342 
0.020625 0.0188437 2.09337 5.95201e+20 3.95809e-06 -1.53557 0.948314 1.84354 
0.019875 0.0190312 2.02491 5.66739e+20 3.76882e-06 2.75321 -0.0904735 1.11491 
0.020625 0.0190312 1.92362 5.86959e+20 3.90327e-06 0.655736 -1.06214 2.82648 
0.019875 0.0207187 1.93406 5.6865e+20 3.78152e-06 4.97557 -1.34818 1.75523 
0.020625 0.0209062 2.01538 5.78708e+20 3.84841e-06 -3.6042 1.36986 -0.834703 
0.01275 0.0084375 1.91847 5.30045e+20 3.5248e-06 -2.15004 -3.04576 1.486 
0.02775 0.0031875 2.07074 5.68991e+20 3.78379e-06 -1.99328 -0.562694 -1.32414 
0.02925 0.0031875 1.91834 5.82306e+20 3.87233e-06 0.840849 -1.2565 1.78977 
0.02775 0.0035625 1.98086 5.73429e+20 3.81331e-06 1.2616 2.34703 0.24345 
0.02925 0.0035625 1.96473 5.774e+20 3.83971e-06 0.345897 -1.11217 -0.661814 
0.02175 0.0046875 2.02133 5.67393e+20 3.77317e-06 0.195574 -1.58031 -1.48719 
0.02175 0.0050625 1.99154 5.62251e+20 3.73897e-06 -1.15059 -2.37467 -3.1103 
0.02325 0.0050625 2.00121 5.92991e+20 3.94339e-06 0.973787 -4.13347 1.69856 
0.01875 0.0054375 2.05379 5.92682e+20 3.94134e-06 2.43696 -1.21934 0.597555 
0.02025 0.0058125 2.01658 5.55905e+20 3.69677e-06 -0.716914 -1.07791 1.8915 
0.02175 0.0054375 2.07974 5.66665e+20 3.76832e-06 3.37525 0.611458 -0.451875 
0.02325 0.0054375 2.0312 6.07773e+20 4.04169e-06 1.32243 -1.25563 1.28448 
0.028875 0.0150937 1.99579 5.84114e+20 3.88436e-06 -3.10348 -1.16259 1.10504 
0.029625 0.0150937 2.04686 5.53372e+20 3.67992e-06 1.36854 -3.00754 2.10173 
0.028875 0.0152812 2.0194 5.59913e+20 3.72342e-06 1.98663 -1.29277 2.40598 
0.029625 0.0152812 1.99856 5.925e+20 3.94013e-06 2.74981 -0.286677 2.58393 
0.024375 0.0162188 2.00202 5.62439e+20 3.74022e-06 3.36816 -1.46305 2.39363 
0.025125 0.0162188 1.98697 5.77093e+20 3.83767e-06 -0.923776 -0.371478 0.728265 
0.024375 0.0164062 2.01387 5.44284e+20 3.61949e-06 -0.743224 -4.37253 -1.39856 
0.025125 0.0164062 2.03081 5.5946e+20 3.72041e-06 2.03183 -2.72068 3.95694 
0.028875 0.0158438 2.07738 5.58607e+20 3.71474e-06 -2.20035 0.631126 -0.0912279 
0.029625 0.0158438 2.07753 5.69322e+20 3.78599e-06 -0.0582854 -0.921622 1.0585 
0.028875 0.0160313 2.07651 5.60545e+20 3.72763e-06 -1.79 0.283001 0.380229 
0.029625 0.0160313 1.93021 5.74665e+20 3.82152e-06 1.40756 1.66127 0.874999 
0.027375 0.0162188 1.96287 5.84071e+20 3.88407e-06 -5.78274 1.22493 3.92472 
0.028125 0.0162188 2.12356 5.98725e+20 3.98152e-06 -1.16879 -0.786354 -0.458855 
0.027375 0.0164062 1.93471 5.76706e+20 3.8351e-06 3.00244 1.94758 1.25637 
0.028125 0.0164062 1.99737 5.67738e+20 3.77546e-06 -0.416392 0.287352 1.69124 
0.028875 0.0177187 2.01193 6.02332e+20 4.00551e-06 3.96233 -1.64094 -0.844646 
0.029625 0.0177187 1.97115 5.54427e+20 3.68694e-06 4.05979 1.03626 3.26413 
0.028875 0.0179062 2.0318 5.33452e+20 3.54746e-06 -4.60875 -2.37639 -3.41877 
0.029625 0.0179062 2.03609 6.08034e+20 4.04343e-06 3.44553 -1.52636 0.110844 
0.027375 0.0180937 2.03359 5.64829e+20 3.75611e-06 -0.182829 0.83719 2.38558 
0.028125 0.0180937 2.0069 5.4794e+20 3.6438e-06 -0.854938 0.755779 -1.1105 
0.027375 0.0182812 2.05291 5.88133e+20 3.91108e-06 -1.95807 0.164264 0.0297097 
0.028125 0.0182812 1.93844 5.91228e+20 3.93167e-06 -2.25121 1.96535 0.561126 
0.027375 0.0184687 2.03843 5.94418e+20 3.95288e-06 2.079 1.21021 1.63329 
0.028125 0.0184687 1.92226 5.75421e+20 3.82655e-06 2.92854 1.06372 -1.84477 
0.027375 0.0186562 1.96174 5.8905e+20 3.91719e-06 -3.00174 0.758334 2.11501 
0.028125 0.0186562 1.9766 5.33239e+20 3.54604e-06 -0.377464 4.93428 3.70818 
0.027375 0.0192187 2.03316 6.00665e+20 3.99443e-06 0.372006 -1.0997 1.47688 
0.028125 0.0192187 1.95955 5.71221e+20 3.79862e-06 -2.13218 -1.7389 0.781995 
0.027375 0.0194062 1.98344 5.44124e+20 3.61842e-06 0.329047 3.65975 -5.77432 
0.028125 0.0194062 2.01917 5.5812e+20 3.7115e-06 1.86909 -0.546173 1.26774 
0.024375 0.0195938 1.94716 5.78772e+20 3.84884e-06 -1.4072 -4.3585 -2.19621 
0.025125 0.0195938 1.90852 5.70686e+20 3.79506e-06 3.29892 1.94803 1.45236 
0.024375 0.0197812 2.00589 5.48684e+20 3.64875e-06 1.58943 3.17409 -2.2423 
0.025125 0.0197812 2.04811 5.62988e+20 3.74387e-06 2.21034 -0.27326 2.417 
0.026625 0.0199687 2.01098 5.78105e+20 3.8444e-06 0.716231 -1.29328 2.25639 
0.025875 0.0201562 1.9854 5.94626e+20 3.95426e-06 -1.05164 1.67704 -0.164015 
0.026625 0.0201562 1.92994 5.63182e+20 3.74516e-06 -0.559783 6.37373 3.03737 
0.027375 0.0195938 1.92764 6.00722e+20 3.9948e-06 -1.02898 2.49266 0.678106 
0.028125 0.0195938 2.00521 5.574e+20 3.70671e-06 -2.57788 0.78277 -1.49656 
0.027375 0.0197812 1.95099 5.99605e+20 3.98737e-06 0.00233502 -3.35435 0.11594 
0.029625 0.0195938 2.07581 5.89169e+20 3.91798e-06 2.85442 0.725587 -1.41573 
0.028875 0.0197812 1.97034 5.43535e+20 3.61451e-06 0.0123356 1.15967 -2.39503 
0.029625 0.0197812 2.01883 5.93883e+20 3.94932e-06 0.921987 0.906183 0.750615 
0.028125 0.0199687 2.01865 5.75838e+20 3.82932e-06 0.919662 -0.216989 -0.262327 
0.027375 0.0201562 1.99156 5.5476e+20 3.68915e-06 -1.23584 -0.68202 3.58045 
0.028125 0.0201562 1.99673 5.90134e+20 3.92439e-06 -0.432071 2.73705 2.76845 
0.025875 0.0203437 1.95841 5.75794e+20 3.82903e-06 -0.282721 3.81101 -1.58098 
0.026625 0.0203437 1.98381 6.09173e+20 4.051e-06 -2.05607 0.197439 0.815335 
0.026625 0.0205312 2.02314 5.93136e+20 3.94436e-06 2.06058 4.88824 -1.84837 
0.028125 0.0207187 1.99963 5.65918e+20 3.76336e-06 1.1738 -1.80664 -1.11572 
0.027375 0.0209062 2.00324 5.91159e+20 3.93121e-06 0.161377 2.83249 -2.71562 
0.024375 0.0210937 2.03318 5.84831e+20 3.88913e-06 1.27628 3.77342 5.04132 
0.025125 0.0212812 1.93882 5.82337e+20 3.87254e-06 -0.976586 -1.71218 -2.016 
0.026625 0.0210937 1.99235 5.64442e+20 3.75354e-06 2.01258 1.69339 -0.838421 
0.025875 0.0212812 1.96778 5.87655e+20 3.90791e-06 -2.73669 2.37628 -2.85455 
0.026625 0.0212812 1.96831 5.54683e+20 3.68864e-06 0.243177 1.88765 1.03739 
0.022875 0.0139688 1.98615 5.82544e+20 3.87392e-06 2.95587 1.07763 -1.45891 
0.023625 0.0139688 1.9857 5.71201e+20 3.79849e-06 -1.15375 0.495982 2.86422 
0.022875 0.0141563 1.9336 5.40451e+20 3.594e-06 0.869137 -0.377129 -4.14938 
0.023625 0.0141563 1.88935 5.38052e+20 3.57805e-06 3.1851 1.40817 -3.46196 
0.021375 0.0192187 2.0216 5.63565e+20 3.74771e-06 -1.22258 0.218998 -0.752713 
0.022125 0.0192187 1.93857 5.68277e+20 3.77904e-06 -1.75504 5.06759 3.34556 
0.021375 0.0194062 2.05873 5.60453e+20 3.72701e-06 1.66514 2.50685 0.339177 
0.019875 0.0195938 1.95907 5.97834e+20 3.97559e-06 0.764071 1.86338 2.58237 
0.020625 0.0195938 1.93744 6.23249e+20 4.1446e-06 -0.580823 0.17144 -3.18366 
0.020625 0.0197812 1.99073 5.69281e+20 3.78572e-06 -0.339602 0.572775 -3.09965 
0.023625 0.0205312 1.9933 5.64472e+20 3.75374e-06 -0.7297 -0.456102 -0.028418 
0.021375 0.0207187 2.0055 5.7302e+20 3.81058e-06 -1.73613 -1.40182 -1.54932 
0.021375 0.0209062 2.04269 5.77625e+20 3.84121e-06 -3.07118 -1.82418 3.59999 
0.022125 0.0209062 1.90362 5.66256e+20 3.76561e-06 -2.40271 -2.48078 2.24189 
0.022875 0.0209062 2.05584 5.64091e+20 3.75121e-06 1.47907 -3.75379 3.27739 
0.021375 0.0212812 2.08567 5.88187e+20 3.91145e-06 3.17638 1.82243 2.07465 
0.022125 0.0212812 1.95907 5.65319e+20 3.75937e-06 -0.29761 0.626648 0.788423 
0.01575 0.0046875 2.0295 5.91538e+20 3.93373e-06 -0.253734 3.02609 -4.02485 
0.01575 0.0050625 1.9491 5.82372e+20 3.87277e-06 -2.5336 -0.934551 0.111533 
0.01725 0.0050625 1.98911 5.49956e+20 3.65721e-06 3.2623 -0.584266 -1.47036 
0.025875 0.0124688 2.00044 5.92718e+20 3.94157e-06 1.44817 -1.75641 -3.09645 
0.026625 0.0124688 1.95857 5.42795e+20 3.60959e-06 1.64501 -4.06798 3.84949 
0.025875 0.0126563 2.00847 5.89302e+20 3.91886e-06 -0.53426 5.25729 1.21645 
0.026625 0.0126563 2.00683 5.9735e+20 3.97238e-06 -3.15603 1.79441 -0.358725 
0.027375 0.0169687 1.90531 5.69594e+20 3.7878e-06 -0.927864 0.250694 -4.80124 
0.027375 0.0171562 2.03875 5.6139e+20 3.73324e-06 -0.0648153 -2.17375 -1.5569 
0.028125 0.0171562 2.00437 5.94374e+20 3.95259e-06 2.77993 1.00553 -0.562851 
0.025875 0.0177187 2.01046 5.89558e+20 3.92056e-06 -2.71459 -0.27986 -3.84306 
0.026625 0.0177187 2.00911 5.79338e+20 3.8526e-06 1.5935 -1.05715 -0.00964244 
0.025875 0.0179062 2.02966 5.84016e+20 3.88371e-06 -0.127199 -3.76403 -2.6006 
0.026625 0.0179062 1.98413 5.99185e+20 3.98458e-06 1.46436 -1.60367 3.05491 
0.022875 0.0113437 2.12699 5.60709e+20 3.72871e-06 -1.331 -1.46323 -0.107921 
0.023625 0.0113437 1.92399 5.70686e+20 3.79506e-06 -0.421308 1.65169 -3.72318 
0.022875 0.0115312 1.85923 6.11462e+20 4.06622e-06 0.923993 -1.924 2.62552 
0.023625 0.0115312 1.95373 5.9674e+20 3.96832e-06 3.51938 0.0889529 -2.95227 
0.019875 0.0165937 1.9745 5.54503e+20 3.68744e-06 -1.1487 3.13787 3.70335 
0.020625 0.0165937 2.07129 5.75646e+20 3.82805e-06 2.20037 -0.478536 2.94387 
0.019875 0.0167812 1.9622 5.55051e+20 3.69109e-06 -3.45986 1.2555 -2.38206 
0.020625 0.0167812 1.99027 5.54377e+20 3.68661e-06 -2.27052 -2.74567 4.00268 
0.019875 0.0180937 2.01163 6.01733e+20 4.00153e-06 1.9467 -3.1691 0.352263 
0.020625 0.0180937 1.9647 5.96104e+20 3.96409e-06 -0.307821 4.26541 -1.12228 
0.019875 0.0182812 1.98056 5.66465e+20 3.76699e-06 1.57116 -2.78503 4.56015 
0.020625 0.0182812 1.95072 5.88752e+20 3.9152e-06 2.56921 4.05148 4.00057 
0.019875 0.0184687 2.03794 6.10963e+20 4.06291e-06 -0.450674 0.0975837 2.14477 
0.020625 0.0184687 1.93976 5.55811e+20 3.69615e-06 -0.770354 2.06079 3.13853 
0.019875 0.0186562 1.96036 5.41126e+20 3.59849e-06 0.472684 0.966422 -1.65513 
0.020625 0.0186562 1.94594 5.72064e+20 3.80423e-06 -0.229267 0.530078 -1.99415 
0.021375 0.0195938 1.96591 5.55668e+20 3.69519e-06 1.00245 1.63286 0.472862 
0.022125 0.0195938 1.93405 5.65487e+20 3.76049e-06 -1.58462 -4.20182 -2.21773 
0.021375 0.0197812 2.09423 5.89306e+20 3.91889e-06 2.69199 -4.30767 0.270906 
0.019875 0.0203437 1.96059 5.90258e+20 3.92522e-06 -1.50879 -1.55449 -0.335361 
0.019875 0.0205312 1.97303 5.9038e+20 3.92603e-06 0.597835 -1.73206 -1.23436 
0.020625 0.0205312 2.01848 5.71638e+20 3.80139e-06 3.67281 -2.38828 1.35208 
0.019875 0.0139688 1.93298 5.77683e+20 3.84159e-06 2.66426 5.45213 -1.53123 
0.020625 0.0139688 2.07566 5.80924e+20 3.86314e-06 5.56038 -0.469003 3.36597 
0.019875 0.0141563 1.98162 5.74828e+20 3.82261e-06 -1.55895 -0.469815 1.12135 
0.020625 0.0141563 2.01395 6.22797e+20 4.1416e-06 -0.320467 2.57108 6.11056 
0.02625 0.0054375 2.01447 5.84877e+20 3.88943e-06 2.47259 2.28901 2.58973 
0.02925 0.0054375 2.03951 5.66665e+20 3.76832e-06 4.07516 -0.239873 -0.610468 
0.01575 0.0031875 1.98303 5.94733e+20 3.95498e-06 1.17627 1.75019 -0.701641 
0.01725 0.0031875 1.96509 5.58339e+20 3.71296e-06 2.21536 -1.52096 1.1811 
0.01575 0.0035625 1.93615 5.60722e+20 3.7288e-06 2.14452 -7.01431 1.76903 
0.01725 0.0035625 1.96504 5.74224e+20 3.81859e-06 0.00505183 0.380281 -4.08138 
0.01575 0.0039375 1.96466 5.72711e+20 3.80853e-06 2.47327 -1.1342 1.45878 
0.01725 0.0039375 2.0252 5.79897e+20 3.85631e-06 0.99927 -2.76275 0.540481 
0.01575 0.0043125 2.06763 6.20012e+20 4.12308e-06 -1.77624 0.801645 1.33435 
0.01725 0.0043125 1.9841 5.66868e+20 3.76967e-06 1.92849 4.06219 2.15764 
0.024375 0.0143437 2.00841 5.74416e+20 3.81986e-06 -0.742865 0.383547 -1.77011 
0.025125 0.0143437 1.97082 5.72838e+20 3.80937e-06 2.95977 -3.80341 1.12561 
0.024375 0.0145312 1.93342 5.59215e+20 3.71878e-06 3.22868 -2.25762 -1.56777 
0.025125 0.0145312 1.96449 5.68562e+20 3.78093e-06 -0.787234 -0.397802 -3.96453 
0.024375 0.0158438 2.03348 5.4432e+20 3.61973e-06 -0.464016 -1.9265 0.567376 
0.025125 0.0158438 2.00867 5.57178e+20 3.70524e-06 -1.35866 0.448984 4.6416 
0.024375 0.0160313 2.01838 5.80313e+20 3.85908e-06 2.48501 -0.0458852 2.57638 
0.025125 0.0160313 1.94575 5.64075e+20 3.7511e-06 4.01324 2.52841 0.767875 
0.027375 0.0158438 2.14015 5.97181e+20 3.97125e-06 0.101714 1.12825 -1.5578 
0.028125 0.0158438 1.9125 5.79323e+20 3.8525e-06 4.07796 -0.300091 -2.19198 
0.027375 0.0160313 2.01371 5.79607e+20 3.85438e-06 -0.581512 2.15769 -0.260269 
0.028125 0.0160313 1.95566 6.0714e+20 4.03748e-06 0.395566 2.59059 1.049 
0.028875 0.0162188 2.07719 5.84769e+20 3.88871e-06 -0.116789 4.97864 1.7927 
0.029625 0.0162188 1.91899 5.54065e+20 3.68453e-06 -3.92614 0.712929 2.29824 
0.028875 0.0164062 2.15129 5.6015e+20 3.725e-06 0.447693 -3.21275 -0.731939 
0.029625 0.0164062 2.02884 5.88433e+20 3.91308e-06 -0.495424 -1.80539 -2.83495 
0.028875 0.0180937 2.04073 6.00482e+20 3.99321e-06 5.93109 1.5709 -2.48476 
0.029625 0.0180937 1.95236 5.4106e+20 3.59805e-06 -0.527542 -1.57302 0.0930659 
0.028875 0.0182812 1.97771 6.29612e+20 4.18692e-06 -0.88071 0.0162664 -2.15527 
0.029625 0.0182812 1.93713 5.42939e+20 3.61055e-06 2.12893 -0.673584 3.00377 
0.024375 0.0188437 2.00098 5.8379e+20 3.8822e-06 -0.51067 0.609971 -0.949238 
0.024375 0.0190312 2.00577 5.85174e+20 3.89141e-06 0.504445 -3.73795 2.2888 
0.025125 0.0190312 2.1477 5.78633e+20 3.84791e-06 -0.100169 2.00315 -1.9151 
0.025125 0.0192187 2.10202 5.65332e+20 3.75946e-06 -2.05071 -2.08092 0.999118 
0.024375 0.0194062 2.0397 5.66868e+20 3.76967e-06 0.733618 0.321494 -0.705465 
0.025125 0.0194062 2.0106 5.92529e+20 3.94032e-06 -0.0591833 1.51481 -0.167833 
0.025875 0.0192187 1.98512 5.8771e+20 3.90827e-06 -0.964716 0.724813 0.226286 
0.026625 0.0192187 1.98189 5.65921e+20 3.76337e-06 -1.17542 -1.65638 -0.0192428 
0.025875 0.0194062 1.87664 5.40624e+20 3.59515e-06 -1.62387 -3.2192 -0.729203 
0.026625 0.0194062 1.973 5.61036e+20 3.73089e-06 2.72602 0.82559 1.95278 
0.025875 0.0195938 1.95075 5.60289e+20 3.72592e-06 -1.34264 3.24108 -0.451155 
0.025875 0.0197812 2.00151 6.15625e+20 4.09391e-06 2.54611 -0.120938 -4.29957 
0.026625 0.0197812 1.98957 6.00177e+20 3.99118e-06 -4.56464 -1.98696 2.05934 
0.028875 0.0199687 1.93729 5.84906e+20 3.88963e-06 -1.0889 -2.20604 -3.44728 
0.029625 0.0199687 1.90134 5.7017e+20 3.79163e-06 -2.18544 -3.38516 -3.93863 
0.028875 0.0201562 2.01429 5.8508e+20 3.89078e-06 1.27242 -5.54677 0.66214 
0.029625 0.0201562 2.0747 5.97995e+20 3.97667e-06 -2.69933 -1.08921 -0.513531 
0.024375 0.0203437 1.99471 5.66336e+20 3.76614e-06 4.60976 -1.23426 4.09227 
0.025125 0.0203437 1.95523 5.58548e+20 3.71434e-06 4.1796 -1.7286 2.72712 
0.025125 0.0205312 2.00796 5.56203e+20 3.69875e-06 2.8199 1.0424 0.341829 
0.024375 0.0207187 1.91112 5.79028e+20 3.85054e-06 0.853056 -0.423956 -0.570202 
0.024375 0.0209062 1.9909 5.54347e+20 3.68641e-06 -2.17098 -2.77423 1.35683 
0.028875 0.0203437 2.07891 6.05835e+20 4.0288e-06 -0.244515 0.50542 -1.00694 
0.028875 0.0205312 2.12659 5.64472e+20 3.75374e-06 -0.00461863 -0.923014 1.38172 
0.028875 0.0207187 1.9745 5.56086e+20 3.69797e-06 2.90155 1.60217 0.424507 
0.029625 0.0207187 1.98654 5.82306e+20 3.87233e-06 0.879129 -3.3327 2.31698 
0.028875 0.0209062 1.98405 5.57595e+20 3.70801e-06 3.14895 -3.21813 -3.63619 
0.028875 0.0214687 1.98002 5.56692e+20 3.702e-06 -2.46087 -0.0969142 0.985908 
0.028875 0.0216562 2.00472 5.57924e+20 3.71019e-06 -5.46518 11.7953 5.35593 
0.029625 0.0216562 1.8128 5.29312e+20 3.51993e-06 8.18588 0.49145 -1.55081 
0.013875 0.0105937 1.93842 5.68355e+20 3.77956e-06 0.344153 -0.959923 -5.69858 
0.014625 0.0105937 1.93765 6.05747e+20 4.02821e-06 1.80964 1.19596 -0.991223 
0.013875 0.0107812 1.94029 5.93112e+20 3.9442e-06 8.03715 -2.56876 0.130016 
0.014625 0.0107812 1.96533 5.79465e+20 3.85345e-06 -1.13048 1.29403 -1.66031 
0.022875 0.0158438 2.12601 5.53607e+20 3.68148e-06 -1.91255 5.9209 1.4254 
0.023625 0.0158438 1.96881 5.56464e+20 3.70049e-06 5.21206 -1.24941 1.17426 
0.022875 0.0160313 1.91175 5.59133e+20 3.71824e-06 -4.29613 -0.779948 0.56249 
0.023625 0.0160313 1.98463 5.88784e+20 3.91542e-06 2.15607 2.52111 -3.11986 
0.022875 0.0180937 1.94318 5.74837e+20 3.82266e-06 -4.44834 -1.58287 0.704543 
0.023625 0.0180937 2.00344 5.95478e+20 3.95993e-06 2.0078 1.77938 -1.92001 
0.022875 0.0182812 2.07654 5.74513e+20 3.82051e-06 -1.00353 3.37223 2.02176 
0.023625 0.0182812 1.9441 5.54083e+20 3.68465e-06 -3.05322 5.52111 -0.639302 
0.021375 0.0188437 2.04168 5.76583e+20 3.83427e-06 -2.5036 -1.3885 0.131755 
0.021375 0.0205312 1.9112 5.84316e+20 3.8857e-06 -0.501834 1.17509 4.16138 
0.022125 0.0205312 1.99191 5.81009e+20 3.86371e-06 -0.923243 1.3372 0.521171 
0.01275 0.0054375 2.06948 5.92227e+20 3.93831e-06 -2.47036 -1.79275 -2.61973 
0.01425 0.0054375 2.08856 5.72389e+20 3.80638e-06 -2.75731 -0.183641 -2.91601 
0.01275 0.0058125 2.07907 5.92353e+20 3.93915e-06 2.57657 -1.6855 1.70356 
0.01875 0.0039375 1.9722 6.23012e+20 4.14303e-06 1.12147 -3.73368 0.987672 
0.02025 0.0039375 1.92353 5.74148e+20 3.81808e-06 0.0785795 0.477738 0.931143 
0.01875 0.0043125 1.92282 5.52434e+20 3.67369e-06 2.79358 -1.38678 -0.0303693 
0.02025 0.0043125 2.01116 5.60964e+20 3.73041e-06 1.60024 -0.984027 -1.5457 
0.024375 0.0120938 1.95808 5.53075e+20 3.67795e-06 0.445538 1.52234 -2.93372 
0.025125 0.0120938 1.92639 5.6992e+20 3.78997e-06 -0.800103 2.12568 0.394259 
0.024375 0.0122813 2.11916 6.13747e+20 4.08142e-06 -2.84427 -1.78827 4.26771 
0.025125 0.0122813 2.0867 5.92551e+20 3.94047e-06 2.53234 0.084209 -2.67857 
0.028875 0.0132188 2.08036 5.62513e+20 3.74071e-06 1.01612 -1.55186 -0.80241 
0.029625 0.0132188 2.04304 5.89055e+20 3.91721e-06 4.55375 0.0848496 3.92859 
0.028875 0.0134063 2.05559 5.93479e+20 3.94664e-06 1.73469 -0.712601 -0.816216 
0.029625 0.0134063 1.99947 5.54646e+20 3.68839e-06 -0.753959 0.606848 1.74487 
0.024375 0.0150937 2.04272 5.87114e+20 3.90431e-06 -1.02099 3.25581 -0.270541 
0.025125 0.0150937 2.01355 5.39125e+20 3.58518e-06 -2.31081 0.738682 -0.316848 
0.024375 0.0152812 1.96164 5.67319e+20 3.77267e-06 0.699746 1.22061 0.928796 
0.025125 0.0152812 2.01378 5.38435e+20 3.58059e-06 -4.69859 3.11354 2.80904 
0.025875 0.0154687 2.07866 6.02147e+20 4.00427e-06 -2.91181 2.45565 2.72255 
0.026625 0.0154687 1.94395 5.68491e+20 3.78046e-06 2.87776 -5.65426 0.136284 
0.025875 0.0156563 2.06591 5.88429e+20 3.91305e-06 -0.60516 -0.978363 3.47875 
0.026625 0.0156563 1.98672 5.55899e+20 3.69673e-06 1.26957 2.67063 -4.68865 
0.027375 0.0165937 1.9292 5.83149e+20 3.87794e-06 -0.632021 -1.0709 -0.923366 
0.028125 0.0165937 2.01369 5.60641e+20 3.72826e-06 2.31256 1.1669 -1.82121 