ITEM: TIMESTEP
500000
ITEM: NUMBER OF CELLS
35424
ITEM: BOX BOUNDS oo ao pp
0 0.35
0 0.03
-0.1 0.1
ITEM: CELLS xc yc f_out[1] f_out[2] f_out[3] f_out[4] f_out[5] f_out[6] 
0.00875 0.01575 0 0 0 0 0 0 
0.00875 0.01875 0 0 0 0 0 0 
0.00875 0.02175 0 0 0 0 0 0 
0.00875 0.02475 0 0 0 0 0 0 
0.00875 0.02775 0 2.18488e+15 1.45295e-11 -88.9442 7.06252 16.7091 
0.02625 0.02475 0 0 0 0 0 0 
0.02625 0.02775 0 0 0 0 0 0 
0.00875 0.01425 0 0 0 0 0 0 
0.00875 0.01725 0 0 0 0 0 0 
0.00875 0.02025 0 0 0 0 0 0 
0.00875 0.02325 0 0 0 0 0 0 
0.00875 0.02625 0 0 0 0 0 0 
0.00875 0.02925 0 0 0 0 0 0 
0.02625 0.02325 0 0 0 0 0 0 
0.02625 0.02625 0 0 0 0 0 0 
0.02625 0.02925 0 2.07284e+15 1.37844e-11 -65.6446 7.17619 -1.32994 
0.04375 0.02325 0 0 0 0 0 0 
0.04375 0.02625 0 0 0 0 0 0 
0.04375 0.02925 0.429283 1.65827e+16 1.10275e-10 -92.2062 21.3662 2.74169 
0.004375 0.013125 0 0 0 0 0 0 
0.013125 0.013125 0 0 0 0 0 0 
0.021875 0.022125 0 0 0 0 0 0 
0.030625 0.022125 0 0 0 0 0 0 
0.0021875 0.0001875 1.89763 1.29372e+22 8.60324e-05 30.2561 5.92078 1.02808 
0.0021875 0.0031875 0 0 0 0 0 0 
0.0021875 0.0035625 0 0 0 0 0 0 
0.0021875 0.0039375 0 0 0 0 0 0 
0.0021875 0.0043125 0 0 0 0 0 0 
0.0021875 0.0061875 0 0 0 0 0 0 
0.0021875 0.0065625 0 0 0 0 0 0 
0.0021875 0.0069375 0 0 0 0 0 0 
0.0021875 0.0073125 0 0 0 0 0 0 
0.0021875 0.0091875 0 0 0 0 0 0 
0.0021875 0.0095625 0 0 0 0 0 0 
0.0021875 0.0099375 0 0 0 0 0 0 
0.0021875 0.0103125 0 0 0 0 0 0 
0.0021875 0.0121875 0 0 0 0 0 0 
0.0021875 0.0125625 0 0 0 0 0 0 
0.0021875 0.0020625 0 0 0 0 0 0 
0.0021875 0.0024375 0 0 0 0 0 0 
0.0021875 0.0028125 0 0 0 0 0 0 
0.0021875 0.0046875 0 0 0 0 0 0 
0.0021875 0.0050625 0 0 0 0 0 0 
0.0021875 0.0054375 0 0 0 0 0 0 
0.0021875 0.0058125 0 0 0 0 0 0 
0.0021875 0.0076875 0 0 0 0 0 0 
0.0021875 0.0080625 0 0 0 0 0 0 
0.0021875 0.0084375 0 0 0 0 0 0 
0.0021875 0.0088125 0 0 0 0 0 0 
0.0021875 0.0106875 0 0 0 0 0 0 
0.0021875 0.0110625 0 0 0 0 0 0 
0.0021875 0.0114375 0 0 0 0 0 0 
0.0021875 0.0118125 0 0 0 0 0 0 
0.0109375 0.0001875 2.06633 5.62982e+21 3.74383e-05 10.3415 6.34935 -3.33375 
0.0109375 0.0001875 1.72744 2.50321e+21 1.66463e-05 -9.50562 3.53081 6.35088 
0.0153125 0.0001875 1.92815 2.63346e+21 1.75125e-05 -1.726 0.314784 -6.11233 
0.0109375 0.0005625 2.1281 5.65884e+21 3.76313e-05 7.56444 13.6189 -2.30638 
0.0109375 0.0005625 1.80836 2.66298e+21 1.77088e-05 4.38924 12.6773 4.3057 
0.00109375 0.00046875 0 0 0 0 0 0 
0.00328125 0.00046875 1.98894 1.28349e+22 8.53522e-05 30.6072 -2.02629 1.19291 
0.00109375 0.00065625 0 0 0 0 0 0 
0.00765625 0.00046875 1.79539 5.09102e+21 3.38553e-05 48.7544 6.94317 -1.31041 
0.00765625 0.00065625 1.87802 5.26841e+21 3.50349e-05 40.4972 7.74216 -1.95625 
0.00109375 0.00084375 0 0 0 0 0 0 
0.00109375 0.00103125 0 0 0 0 0 0 
0.00109375 0.00121875 0 0 0 0 0 0 
0.00109375 0.00140625 0 0 0 0 0 0 
0.00546875 0.00309375 2.10191 2.99545e+21 1.99198e-05 2.43159 -2.98603 -5.76641 
0.00546875 0.00328125 2.00326 3.31123e+21 2.20197e-05 -2.57905 1.21135 -5.47787 
0.00546875 0.00346875 1.92055 3.51226e+21 2.33565e-05 0.234071 -0.606647 2.03079 
0.00546875 0.00365625 1.87564 3.3977e+21 2.25947e-05 3.37161 -2.06534 0.423381 
0.0120312 0.00346875 2.06031 2.42404e+21 1.61198e-05 -3.3394 -6.1485 -3.63314 
0.0120312 0.00365625 2.01909 2.47999e+21 1.64919e-05 0.426354 -2.1638 2.56224 
0.00546875 0.00384375 1.83155 3.10725e+21 2.06632e-05 0.0975243 8.61624 -4.57123 
0.00546875 0.00403125 1.90038 3.84461e+21 2.55666e-05 0.356484 3.45571 -3.09031 
0.00546875 0.00421875 2.04526 3.58852e+21 2.38637e-05 3.21534 5.28788 -1.87218 
0.00546875 0.00440625 2.00239 3.46301e+21 2.3029e-05 1.78101 8.27502 -2.20097 
0.0120312 0.00421875 2.02699 2.42864e+21 1.61505e-05 -1.88484 -0.481036 0.369242 
0.0120312 0.00440625 1.91394 2.36609e+21 1.57345e-05 2.67026 0.350365 2.34572 
0.00546875 0.00609375 1.96711 3.08087e+21 2.04878e-05 0.607482 7.10172 -1.89302 
0.00546875 0.00628125 1.97424 3.04614e+21 2.02568e-05 2.35932 3.4085 2.06712 
0.00546875 0.00646875 1.97601 3.18014e+21 2.1148e-05 1.70092 2.54135 -2.80419 
0.00546875 0.00665625 1.94588 3.06056e+21 2.03527e-05 4.49288 4.32322 -5.20345 
0.0120312 0.00609375 1.99595 2.48764e+21 1.65428e-05 -2.00637 -3.20468 -1.62533 
0.0120312 0.00628125 2.02399 2.47061e+21 1.64296e-05 -1.29064 0.882963 -0.682357 
0.0120312 0.00646875 2.05376 2.44531e+21 1.62613e-05 -0.562394 -3.15483 1.19025 
0.0120312 0.00665625 2.05645 2.42744e+21 1.61425e-05 -2.19377 -1.81535 -0.10997 
0.00546875 0.00684375 2.00849 3.05842e+21 2.03385e-05 0.272262 6.64255 -0.466933 
0.00546875 0.00703125 2.01547 3.0848e+21 2.05139e-05 -2.33749 4.27423 2.64366 
0.00546875 0.00721875 2.06275 2.83314e+21 1.88404e-05 -2.66665 4.27763 -3.13796 
0.00546875 0.00740625 1.95751 3.05805e+21 2.0336e-05 -2.37975 2.7576 -0.093593 
0.0120312 0.00684375 2.04482 2.39304e+21 1.59137e-05 1.0192 2.1897 -1.52835 
0.0120312 0.00703125 1.99864 2.47125e+21 1.64338e-05 -1.47824 2.19056 2.39136 
0.0120312 0.00721875 1.99519 2.36833e+21 1.57494e-05 -1.06272 -1.75265 -1.67747 
0.0120312 0.00740625 2.00552 2.46747e+21 1.64087e-05 -0.679042 -2.41372 -0.515881 
0.00546875 0.00909375 2.03587 3.04404e+21 2.02429e-05 0.403302 4.96203 4.61573 
0.00546875 0.00928125 1.91399 2.78026e+21 1.84888e-05 3.79656 1.42061 0.518724 
0.00546875 0.00946875 2.01688 2.86442e+21 1.90484e-05 1.65686 7.66043 -1.31808 
0.00546875 0.00965625 2.09045 2.86672e+21 1.90637e-05 1.9168 1.30608 0.661853 
0.0120312 0.00909375 1.91496 2.45104e+21 1.62994e-05 0.509942 -4.2102 0.48501 
0.00546875 0.00984375 2.01085 2.8324e+21 1.88355e-05 0.158436 1.19333 -0.938372 
0.00546875 0.0100312 1.9454 2.79141e+21 1.85628e-05 -0.417182 4.48397 2.51825 
0.00546875 0.0102187 2.00252 2.80664e+21 1.86642e-05 -0.388865 1.27257 1.10485 
0.00546875 0.0104062 1.94534 2.9787e+21 1.98084e-05 -4.31582 4.74617 1.31307 
0.00546875 0.0124688 1.99687 2.92167e+21 1.94291e-05 0.212702 -0.4678 2.76441 
0.00546875 0.0126563 2.06528 3.03157e+21 2.01599e-05 -5.06928 -1.05317 1.16923 
0.0273437 0.00121875 1.89751 2.40064e+21 1.59643e-05 7.50938 1.30467 -2.4344 
0.0295312 0.00121875 2.06342 2.41338e+21 1.6049e-05 2.04592 0.171908 1.65438 
0.0273437 0.00140625 2.00562 2.40064e+21 1.59643e-05 -0.501389 -0.874125 -2.47168 
0.0185937 0.0216562 2.01677 2.57503e+21 1.7124e-05 6.79924 -3.25681 -4.09029 
0.00109375 0.00159375 0 0 0 0 0 0 
0.00109375 0.00178125 0 0 0 0 0 0 
0.00328125 0.00178125 0 0 0 0 0 0 
0.00546875 0.00178125 1.73009 2.66859e+21 1.77461e-05 3.9969 10.3406 -8.50022 
0.00546875 0.00196875 1.92037 3.14486e+21 2.09133e-05 4.34476 14.0222 -1.53919 
0.00546875 0.00215625 1.71161 3.13074e+21 2.08194e-05 -6.07767 11.7271 -2.91065 
0.0142187 0.00159375 2.0104 2.5029e+21 1.66443e-05 -1.57005 2.33553 0.0532771 
0.00546875 0.00234375 2.04276 3.01663e+21 2.00606e-05 -3.31439 -6.33962 -8.92312 
0.00546875 0.00253125 2.16867 2.8563e+21 1.89944e-05 -4.58777 7.69657 2.29739 
0.00546875 0.00271875 1.95768 3.23231e+21 2.14949e-05 3.16752 5.60833 -4.27166 
0.00546875 0.00290625 1.9738 3.22994e+21 2.14791e-05 -2.97439 -1.06873 -0.112825 
0.00546875 0.00459375 1.85664 3.23471e+21 2.15108e-05 3.76494 5.32684 -0.904607 
0.00546875 0.00478125 1.91834 3.21647e+21 2.13895e-05 2.82618 5.31768 3.00253 
0.00546875 0.00496875 2.12094 3.23176e+21 2.14912e-05 2.62071 5.39095 1.30774 
0.00546875 0.00515625 2.0868 3.67976e+21 2.44704e-05 -1.89366 3.18795 3.58007 
0.0120312 0.00459375 2.03367 2.42603e+21 1.61331e-05 -1.59681 5.62168 -1.77915 
0.0120312 0.00478125 2.02516 2.50634e+21 1.66672e-05 1.02498 3.15852 -2.5814 
0.0120312 0.00496875 2.03873 2.52431e+21 1.67867e-05 -1.99986 1.15953 -4.33048 
0.0120312 0.00515625 1.85298 2.49836e+21 1.66141e-05 2.97442 -4.42947 -5.95316 
0.00546875 0.00534375 1.99947 3.23669e+21 2.1524e-05 -4.74429 8.82658 3.28045 
0.00546875 0.00553125 2.16642 3.00421e+21 1.9978e-05 0.725784 4.29308 -4.54994 
0.00546875 0.00571875 1.8479 3.03842e+21 2.02055e-05 -2.71779 6.33356 0.476343 
0.00546875 0.00590625 1.87375 3.34099e+21 2.22176e-05 3.11308 5.2484 -3.07682 
0.0120312 0.00534375 1.9799 2.43686e+21 1.62051e-05 -3.44535 -0.249374 -3.70558 
0.0120312 0.00553125 1.99913 2.48064e+21 1.64962e-05 1.92852 4.0834 1.82276 
0.0120312 0.00571875 1.92226 2.41677e+21 1.60715e-05 -1.56325 -0.863888 1.06334 
0.0120312 0.00590625 2.03861 2.46854e+21 1.64158e-05 -3.88134 0.795273 2.90249 
0.00546875 0.00759375 2.07628 2.97728e+21 1.97989e-05 5.05251 9.91906 2.8249 
0.00546875 0.00778125 1.95266 2.98254e+21 1.98339e-05 1.40077 2.02453 1.61965 
0.00546875 0.00796875 2.03326 2.99758e+21 1.99339e-05 1.23182 4.88863 -3.09654 
0.00546875 0.00815625 1.95152 3.11967e+21 2.07458e-05 -0.0603116 2.08996 1.80423 
0.0120312 0.00778125 1.97671 2.52823e+21 1.68127e-05 3.56686 -4.35874 -2.41765 
0.00546875 0.00834375 1.97551 2.98254e+21 1.98339e-05 -1.95576 -3.55298 2.51659 
0.00546875 0.00853125 2.03446 2.8374e+21 1.88687e-05 -1.95627 2.84317 -0.983278 
0.00546875 0.00871875 1.89217 2.78096e+21 1.84934e-05 0.837164 -0.390648 1.41793 
0.00546875 0.00890625 2.04728 2.8749e+21 1.91181e-05 4.6833 0.722125 0.282421 
0.0120312 0.00834375 2.00755 2.34343e+21 1.55838e-05 0.873422 0.170547 -0.535744 
0.0120312 0.00871875 2.03879 2.34801e+21 1.56143e-05 -2.78903 1.02442 -2.88679 
0.0120312 0.00890625 2.06646 2.42864e+21 1.61505e-05 -3.58698 -2.05738 -0.1327 
0.00546875 0.0105937 2.03103 2.76385e+21 1.83796e-05 -4.24215 3.74449 3.13111 
0.00546875 0.0107812 2.064 2.92326e+21 1.94397e-05 1.25377 -4.3993 -7.27995 
0.00546875 0.0109687 1.96463 2.673e+21 1.77754e-05 -4.59626 1.56499 -1.21699 
0.00546875 0.0111562 2.01582 2.93242e+21 1.95006e-05 -0.121592 1.81013 -5.61625 
0.00546875 0.0113437 2.0087 2.72549e+21 1.81245e-05 1.94599 0.0406461 -2.31934 
0.00546875 0.0115312 2.04629 2.80934e+21 1.86821e-05 0.694492 -1.01548 -3.25054 
0.00546875 0.0117188 1.97764 2.75076e+21 1.82925e-05 -1.20649 1.46175 -0.347024 
0.00546875 0.0119063 1.87473 2.75441e+21 1.83168e-05 3.38626 -0.972604 -0.707912 
0.0251562 0.00178125 1.96863 2.58799e+21 1.72101e-05 3.82671 -0.320543 -2.80886 
0.0317187 0.00159375 2.00736 2.41769e+21 1.60776e-05 1.56349 0.32376 0.598953 
0.0339062 0.00159375 1.91415 2.45421e+21 1.63205e-05 -0.087442 -2.30016 1.67813 
0.0196875 0.0001875 1.91779 2.35925e+21 1.5689e-05 2.46189 2.91217 1.89888 
0.0240625 0.0001875 2.07034 2.40064e+21 1.59643e-05 1.43497 -0.988086 -4.79921 
0.0284375 0.0001875 1.94851 2.28165e+21 1.51729e-05 2.99891 -1.58963 0.600319 
0.0328125 0.0001875 1.93513 2.44203e+21 1.62395e-05 3.08358 4.12904 -0.842202 
0.00984375 0.00309375 1.85813 3.6301e+21 2.41402e-05 3.46606 11.073 0.441247 
0.0120312 0.00309375 2.1118 2.42735e+21 1.61419e-05 0.0300814 4.73478 -2.32246 
0.00984375 0.00328125 1.92009 3.79744e+21 2.52529e-05 2.95107 15.8403 3.21445 
0.0120312 0.00328125 2.10095 2.64777e+21 1.76077e-05 2.17105 1.38664 1.16266 
0.0120312 0.00384375 2.02866 2.6396e+21 1.75534e-05 -1.14683 -3.04489 -0.967874 
0.0120312 0.00403125 2.01217 2.32361e+21 1.5452e-05 2.92017 -4.08658 0.316333 
0.0317187 0.00121875 2.02779 2.61396e+21 1.73828e-05 0.547304 -2.35564 0.716771 
0.0339062 0.00121875 1.97731 2.53755e+21 1.68747e-05 2.15405 2.03309 1.11496 
0.0317187 0.00140625 2.07727 2.48618e+21 1.65331e-05 4.17196 2.80582 -0.752791 
0.0339062 0.00140625 2.03144 2.45859e+21 1.63496e-05 0.72401 1.90446 -0.0310452 
0.00984375 0.00271875 1.9737 3.9707e+21 2.64051e-05 -3.91231 11.6935 -1.16471 
0.0120312 0.00271875 2.00611 2.45362e+21 1.63166e-05 -1.53452 -0.749688 2.29241 
0.00984375 0.00290625 1.96448 3.87553e+21 2.57723e-05 -1.27841 15.0287 -0.299718 
0.0120312 0.00290625 1.87538 2.50836e+21 1.66806e-05 -0.914184 -0.325691 2.19043 
0.0360937 0.00159375 1.97337 2.47125e+21 1.64338e-05 1.80097 0.159332 -0.551878 
0.0426562 0.00159375 2.03947 2.41769e+21 1.60776e-05 0.824014 0.225085 1.56477 
0.0514062 0.00159375 1.99512 2.41282e+21 1.60452e-05 4.84267 0.59626 -1.61259 
0.0492187 0.00178125 1.96742 2.53788e+21 1.68769e-05 2.64659 1.05604 -0.832694 
0.00492187 0.000609375 1.91782 1.10544e+22 7.35119e-05 36.8025 -4.08035 0.67011 
0.00601562 0.000609375 1.81858 8.09978e+21 5.38635e-05 54.5479 4.27185 2.65045 
0.00492187 0.000703125 1.84153 1.07946e+22 7.17842e-05 40.2671 3.662 -3.2688 
0.00601562 0.000703125 1.73946 8.71958e+21 5.79852e-05 44.8915 3.80361 -0.146145 
0.00273437 0.000796875 1.94143 1.43078e+22 9.51468e-05 20.9343 -4.87493 -0.653168 
0.00382812 0.000796875 1.86544 1.33813e+22 8.89854e-05 31.4281 -5.35803 -0.61527 
0.00273437 0.000890625 1.63829 1.52491e+22 0.000101406 27.749 -17.1678 -2.35152 
0.00273437 0.000984375 2.04188 1.20935e+22 8.04217e-05 34.1995 -7.1097 6.90336 
0.00382812 0.000984375 1.89744 1.36076e+22 9.04904e-05 26.9119 -2.5648 -4.02069 
0.00273437 0.00107813 1.76767 1.30636e+22 8.68732e-05 9.30299 3.60745 7.86186 
0.00492187 0.000984375 1.86973 1.07536e+22 7.15116e-05 37.2222 1.02437 -2.01106 
0.00601562 0.000984375 1.79847 8.40422e+21 5.58881e-05 44.604 1.32221 -1.37339 
0.00492187 0.00107813 1.7826 1.05959e+22 7.0463e-05 31.1945 0.868106 2.47277 
0.00601562 0.00107813 1.94793 8.33566e+21 5.54322e-05 46.5482 2.61327 3.64782 
0.00273437 0.00117188 1.77312 1.57386e+22 0.000104661 25.0789 -1.83233 3.75513 
0.00273437 0.00126563 2.00663 1.28505e+22 8.54559e-05 15.736 4.65003 2.78021 
0.00273437 0.00135937 1.83212 1.44311e+22 9.5967e-05 21.3057 -13.1957 6.13117 
0.00273437 0.00145312 1.80556 1.59232e+22 0.000105889 22.8594 -6.56689 3.3563 
0.00492187 0.00117188 1.97032 1.03046e+22 6.85253e-05 33.1754 -2.18003 -4.82659 
0.00601562 0.00117188 1.8972 8.42377e+21 5.60181e-05 36.0025 2.48531 -0.112485 
0.00492187 0.00126563 1.89414 1.07063e+22 7.1197e-05 27.2077 3.57531 0.470099 
0.00601562 0.00126563 1.727 7.97148e+21 5.30104e-05 38.3439 2.00375 -1.84495 
0.00492187 0.00135937 1.91423 1.04589e+22 6.95518e-05 23.2349 1.04469 1.75063 
0.00601562 0.00135937 1.84414 8.11823e+21 5.39862e-05 33.8299 6.57373 0.30248 
0.00601562 0.00145312 1.85041 7.85082e+21 5.2208e-05 29.3765 5.22539 -3.02196 
0.00710937 0.00304688 2.01074 3.64235e+21 2.42217e-05 -2.51667 10.5902 -0.327447 
0.00820312 0.00304688 1.942 3.56085e+21 2.36796e-05 -1.4283 18.9454 -2.52716 
0.00710937 0.00314063 1.94954 3.26181e+21 2.1691e-05 2.58363 8.66298 0.564361 
0.00820312 0.00314063 2.02126 3.43973e+21 2.28742e-05 0.566896 10.3547 1.45428 
0.00710937 0.00323438 1.95662 3.22005e+21 2.14133e-05 1.73582 7.20361 1.37042 
0.00820312 0.00323438 1.95174 3.55118e+21 2.36153e-05 -3.30381 15.8104 -1.52225 
0.00710937 0.00332813 2.05833 3.28791e+21 2.18646e-05 2.60828 7.5935 -0.306352 
0.00820312 0.00332813 2.00526 3.39518e+21 2.25779e-05 1.49778 12.2588 -2.48609 
0.00710937 0.00342187 1.93144 3.12072e+21 2.07528e-05 -2.56266 13.4628 0.575511 
0.00820312 0.00342187 1.83025 3.65143e+21 2.4282e-05 -4.21712 13.7762 -3.78527 
0.00710937 0.00351562 1.91991 3.3598e+21 2.23426e-05 -1.84693 11.3675 -1.26094 
0.00820312 0.00351562 1.92437 3.479e+21 2.31354e-05 5.73653 13.3482 5.3186 
0.00820312 0.00360937 1.86076 3.43164e+21 2.28204e-05 -5.96945 13.0177 0.992167 
0.00710937 0.00370312 1.96565 3.43697e+21 2.28559e-05 -1.54398 7.59103 -0.364028 
0.00820312 0.00370312 1.89056 3.34057e+21 2.22148e-05 3.97616 12.4869 -2.32347 
0.0158594 0.00360937 1.94341 2.57158e+21 1.7101e-05 1.02445 -1.54918 -4.36227 
0.0169531 0.00360937 1.98365 2.48127e+21 1.65005e-05 0.509682 -1.54934 -1.6368 
0.0158594 0.00370312 1.95531 2.61126e+21 1.73649e-05 2.75829 -1.07472 0.917361 
0.0169531 0.00370312 1.953 2.43522e+21 1.61942e-05 -0.968742 -3.94343 1.459 
0.00710937 0.00379687 1.97499 3.42978e+21 2.2808e-05 0.755193 8.83676 0.546278 
0.00820312 0.00379687 1.99294 3.42978e+21 2.2808e-05 -0.101813 13.2533 0.241937 
0.00710937 0.00389062 1.9275 3.19953e+21 2.12769e-05 -4.9927 5.22367 0.147597 
0.00820312 0.00389062 1.97846 3.55459e+21 2.3638e-05 2.44058 11.0798 0.43221 
0.00710937 0.00398438 1.93507 3.3346e+21 2.21751e-05 -0.784306 6.19512 2.27461 
0.00820312 0.00398438 1.88174 3.52159e+21 2.34186e-05 3.06908 12.1339 -1.99566 
0.00710937 0.00407813 1.97914 3.42161e+21 2.27537e-05 0.214309 7.76037 0.486109 
0.00820312 0.00417188 1.96821 3.21078e+21 2.13517e-05 -3.12512 13.5469 -0.555148 
0.00820312 0.00426563 1.92149 3.57686e+21 2.37861e-05 -3.16803 10.0933 -1.15038 
0.00710937 0.00435938 2.02224 3.30411e+21 2.19723e-05 0.588205 5.59356 -0.102459 
0.00820312 0.00435938 1.94214 3.31835e+21 2.2067e-05 -6.14945 7.44812 -3.72795 
0.0158594 0.00379687 2.03579 2.4405e+21 1.62293e-05 2.36593 2.02222 -1.1201 
0.0169531 0.00379687 2.02134 2.41597e+21 1.60662e-05 -3.73591 0.219685 -1.83353 
0.0158594 0.00389062 2.02401 2.36175e+21 1.57056e-05 0.418171 1.67583 -1.36829 
0.0169531 0.00389062 2.05362 2.39765e+21 1.59444e-05 -1.13117 -4.1615 2.37405 
0.0158594 0.00435938 1.97987 2.43892e+21 1.62188e-05 -0.377603 -3.60435 -1.80768 
0.0169531 0.00435938 1.98864 2.59914e+21 1.72843e-05 -0.591066 -1.67269 1.40604 
0.0158594 0.00445313 1.99086 2.43637e+21 1.62019e-05 -0.107065 -6.51115 5.63995 
0.0169531 0.00445313 1.96081 2.41894e+21 1.6086e-05 0.380442 -1.95746 3.91327 
0.0136719 0.00604688 1.9403 2.51551e+21 1.67281e-05 -0.22271 -1.43214 1.08514 
0.0147656 0.00604688 1.89573 2.50011e+21 1.66257e-05 1.11196 -1.70185 4.21213 
0.0136719 0.00614063 1.96061 2.35072e+21 1.56323e-05 0.132826 -0.261822 -0.672312 
0.0147656 0.00614063 2.07838 2.41897e+21 1.60861e-05 3.31198 -0.335183 -2.57946 
0.0158594 0.00604688 1.96269 2.42824e+21 1.61478e-05 4.23558 -1.6276 1.79164 
0.0158594 0.00614063 1.97774 2.43161e+21 1.61702e-05 0.547662 0.844696 0.950304 
0.0136719 0.00632813 2.02058 2.48956e+21 1.65555e-05 0.0325087 -1.78158 0.987755 
0.0158594 0.00623438 1.99778 2.30043e+21 1.52979e-05 -0.811286 -4.71224 0.333659 
0.0169531 0.00623438 2.08891 2.39504e+21 1.5927e-05 0.663829 0.170804 -1.12731 
0.0158594 0.00632813 2.03587 2.40371e+21 1.59847e-05 -1.90497 -0.664225 -3.6789 
0.0169531 0.00632813 2.09947 2.45031e+21 1.62946e-05 -1.52844 2.96676 0.246562 
0.0136719 0.00642188 1.9666 2.42179e+21 1.61049e-05 -0.615682 -0.362095 2.74638 
0.0136719 0.00670313 2.03889 2.28776e+21 1.52136e-05 0.513627 1.58381 -1.91874 
0.0147656 0.00670313 1.93782 2.32712e+21 1.54754e-05 1.60058 1.82293 -4.55012 
0.0158594 0.00660938 1.98069 2.50338e+21 1.66475e-05 1.794 1.30676 0.475666 
0.0169531 0.00660938 2.00565 2.46816e+21 1.64133e-05 -0.422804 -3.69358 -0.880769 
0.0158594 0.00679687 2.02168 2.45945e+21 1.63553e-05 0.0135364 -2.56813 1.30019 
0.0158594 0.00726562 2.01377 2.52081e+21 1.67634e-05 4.06197 -1.93046 0.424598 
0.0136719 0.00735937 1.96647 2.51611e+21 1.67322e-05 -0.83352 0.99227 0.729252 
0.0136719 0.00745312 2.0559 2.34077e+21 1.55661e-05 -0.864004 -0.744128 0.877821 
0.0103906 0.00942187 0 0 0 0 0 0 
0.0103906 0.00951562 1.98832 2.6171e+21 1.74037e-05 -0.419588 1.2634 5.10088 
0.00929687 0.0127031 2.05721 2.80182e+21 1.86321e-05 3.14259 -1.06708 -4.24205 
0.0103906 0.0127031 2.00438 2.67327e+21 1.77773e-05 4.92548 4.68542 -1.88082 
0.0136719 0.0127031 2.03099 2.46864e+21 1.64165e-05 3.40964 -2.5363 2.29124 
0.0180469 0.00342187 2.05382 2.39044e+21 1.58964e-05 -0.331596 -8.71589 1.11334 
0.0191406 0.00342187 2.06911 2.42672e+21 1.61377e-05 5.6044 0.617645 5.22554 
0.0180469 0.00351562 1.9713 2.52095e+21 1.67643e-05 -1.76818 -1.83786 -3.1261 
0.0191406 0.00351562 2.00899 2.37084e+21 1.57661e-05 -1.2285 2.66634 -2.52014 
0.0202344 0.00435938 1.99539 2.56353e+21 1.70475e-05 2.95144 -5.25988 1.85424 
0.0213281 0.00435938 2.00494 2.34991e+21 1.56269e-05 1.53431 -1.13732 1.3663 
0.0202344 0.00445313 2.03403 2.57927e+21 1.71522e-05 3.56748 0.753761 -3.4146 
0.0213281 0.00445313 2.0944 2.52351e+21 1.67813e-05 2.21569 2.97336 -0.309362 
0.0180469 0.00604688 2.05094 2.4385e+21 1.6216e-05 -1.44328 -0.0484472 0.228021 
0.0191406 0.00604688 1.9255 2.52064e+21 1.67623e-05 3.13267 -2.59215 2.24469 
0.0180469 0.00614063 2.00424 2.47963e+21 1.64896e-05 0.440569 -2.04713 0.0623188 
0.0180469 0.00623438 2.00238 2.39006e+21 1.58939e-05 2.31203 -1.28723 1.25967 
0.0191406 0.00623438 2.01467 2.5743e+21 1.71191e-05 2.60646 -1.54468 -3.82138 
0.0180469 0.00632813 1.9787 2.40861e+21 1.60173e-05 -3.44881 0.973006 -0.84042 
0.0191406 0.00632813 2.01574 2.45522e+21 1.63272e-05 -2.95766 -0.33272 -0.307743 
0.0202344 0.00632813 1.97755 2.51163e+21 1.67023e-05 0.556253 0.58856 2.57897 
0.0213281 0.00632813 1.94792 2.38409e+21 1.58542e-05 1.43419 3.99931 0.895007 
0.0224219 0.00604688 2.00283 2.48471e+21 1.65233e-05 1.07366 -0.461207 -1.01245 
0.0235156 0.00604688 1.98925 2.3846e+21 1.58576e-05 -0.62352 6.54311 -1.4811 
0.0224219 0.00614063 1.98942 2.56557e+21 1.70611e-05 0.222299 -1.99112 -2.45185 
0.0235156 0.00614063 2.04021 2.42908e+21 1.61534e-05 2.6453 4.18579 -2.65558 
0.0224219 0.00632813 2.04402 2.43805e+21 1.6213e-05 2.31827 0.184817 0.680017 
0.0235156 0.00632813 1.98941 2.59012e+21 1.72243e-05 4.96004 -0.305395 -0.396698 
0.0257031 0.00623438 2.02156 2.33529e+21 1.55297e-05 1.43056 0.827733 -0.124097 
0.0257031 0.00632813 2.03257 2.46012e+21 1.63598e-05 -0.972729 -0.826877 2.35035 
0.0202344 0.00642188 1.99383 2.47738e+21 1.64746e-05 2.3263 -0.018479 -1.3487 
0.0213281 0.00642188 1.90617 2.46288e+21 1.63781e-05 -0.700609 -1.26583 0.755513 
0.0180469 0.00670313 2.04132 2.44985e+21 1.62915e-05 3.24017 -0.140213 -0.772689 
0.0191406 0.00670313 2.06585 2.63509e+21 1.75234e-05 3.73455 2.03578 1.00137 
0.0213281 0.00660938 1.96992 2.55505e+21 1.69911e-05 2.08416 1.5718 -1.59001 
0.0202344 0.00670313 2.05714 2.58415e+21 1.71846e-05 0.998301 1.19287 -0.892154 
0.0224219 0.00642188 1.96815 2.37829e+21 1.58156e-05 3.8402 -3.04901 -1.7885 
0.0224219 0.00660938 2.02071 2.51513e+21 1.67256e-05 2.86356 1.19773 2.93999 
0.0224219 0.00670313 2.01614 2.47069e+21 1.64301e-05 0.461994 2.6446 -0.15632 
0.0257031 0.00670313 1.9873 2.44985e+21 1.62915e-05 -0.00957907 -2.54326 2.1337 
0.0300781 0.00632813 2.02022 2.46503e+21 1.63924e-05 1.45066 -0.804298 3.34528 
0.0333594 0.00604688 2.11728 2.51808e+21 1.67452e-05 -0.459657 1.82209 -1.88791 
0.0344531 0.00604688 1.9259 2.45647e+21 1.63355e-05 2.00807 -2.3192 3.65557 
0.0344531 0.00614063 2.04249 2.50238e+21 1.66408e-05 -0.540803 -0.490251 2.39729 
0.0311719 0.00623438 2.13992 2.39504e+21 1.5927e-05 -0.436206 0.874325 -0.328585 
0.0322656 0.00623438 1.90443 2.54442e+21 1.69204e-05 4.60143 -1.91223 -1.33701 
0.0311719 0.00632813 1.97814 2.40126e+21 1.59684e-05 -0.216759 1.8217 -1.59434 
0.0322656 0.00632813 2.00211 2.44295e+21 1.62456e-05 1.6123 0.639052 -0.706779 
0.0344531 0.00623438 2.01499 2.50956e+21 1.66886e-05 2.39988 3.43432 -1.42183 
0.0289844 0.00642188 2.01678 2.51122e+21 1.66996e-05 4.72502 3.14849 -3.49723 
0.0289844 0.00651563 1.96639 2.47985e+21 1.6491e-05 2.21999 -0.194389 3.39812 
0.0267969 0.00660938 2.0442 2.46816e+21 1.64133e-05 3.14587 1.43456 2.53251 
0.0311719 0.00642188 1.93654 2.43388e+21 1.61853e-05 -0.671795 2.0877 3.43452 
0.0322656 0.00642188 1.97979 2.46046e+21 1.63621e-05 1.32449 3.63479 -0.118823 
0.0311719 0.00651563 1.99611 2.406e+21 1.59999e-05 -0.0870474 -0.134177 2.86416 
0.0180469 0.00679687 2.06259 2.35212e+21 1.56416e-05 3.3176 2.2058 -1.65584 
0.0180469 0.00689062 2.02189 2.50482e+21 1.66571e-05 5.11194 -0.992209 2.93145 
0.0202344 0.00689062 1.92026 2.4395e+21 1.62227e-05 3.75927 1.8899 0.277374 
0.0213281 0.00698437 1.94942 2.39786e+21 1.59458e-05 0.00598218 0.173672 1.38999 
0.0235156 0.00679687 1.92294 2.45945e+21 1.63553e-05 2.06274 -2.67798 -0.0871018 
0.0224219 0.00689062 1.97632 2.38319e+21 1.58482e-05 -0.342057 -1.15381 1.29606 
0.0246094 0.00689062 2.03073 2.44626e+21 1.62676e-05 -0.676202 -2.92124 1.03265 
0.0257031 0.00689062 2.04454 2.51383e+21 1.6717e-05 3.08682 0.0879554 2.2776 
0.0224219 0.00707812 1.92382 2.47136e+21 1.64346e-05 2.50453 -0.59063 -2.65119 
0.0257031 0.00698437 1.98783 2.45564e+21 1.633e-05 3.86637 5.75582 1.4747 
0.0191406 0.00735937 2.08375 2.74178e+21 1.82329e-05 4.93461 -1.83057 -1.97907 
0.0224219 0.00717187 2.02311 2.37846e+21 1.58168e-05 1.00802 -3.49733 0.934756 
0.0224219 0.00726562 1.94819 2.43963e+21 1.62235e-05 1.34147 -1.67334 -0.0194891 
0.0246094 0.00745312 1.97529 2.3012e+21 1.5303e-05 2.9627 0.816368 1.80912 
0.0289844 0.00679687 1.9226 2.34298e+21 1.55808e-05 1.90725 1.47408 -1.56386 
0.0289844 0.00689062 1.9959 2.34714e+21 1.56085e-05 0.465895 0.0571304 0.705725 
0.0300781 0.00698437 1.94035 2.48898e+21 1.65517e-05 2.87725 1.90607 -0.0539903 
0.0344531 0.00679687 1.91329 2.4937e+21 1.65831e-05 2.34874 -0.731816 -0.253271 
0.0333594 0.00698437 1.98522 2.4112e+21 1.60345e-05 1.09883 -1.01676 -5.57998 
0.0278906 0.00745312 1.89565 2.52612e+21 1.67987e-05 1.61054 0.972241 0.307564 
0.0289844 0.00735937 2.02879 2.39168e+21 1.59047e-05 2.92242 0.725797 0.441115 
0.0322656 0.00717187 1.96237 2.40659e+21 1.60039e-05 0.600848 0.749686 2.44281 
0.0180469 0.0127031 2.05938 2.56571e+21 1.7062e-05 1.59919 -0.495536 1.57306 
0.0180469 0.0129844 0 0 0 0 0 0 
0.0191406 0.0129844 2.01913 2.45495e+21 1.63254e-05 -0.524738 0.358013 -0.770064 
0.0180469 0.0130781 0 0 0 0 0 0 
0.0180469 0.0150469 0 0 0 0 0 0 
0.0180469 0.0151406 0 0 0 0 0 0 
0.0180469 0.0152344 0 0 0 0 0 0 
0.0180469 0.0153281 0 0 0 0 0 0 
0.0180469 0.0187969 0 0 0 0 0 0 
0.0180469 0.0188906 0 0 0 0 0 0 
0.0180469 0.0191719 0 0 0 0 0 0 
0.0180469 0.0192656 0 0 0 0 0 0 
0.0180469 0.0210469 0 0 0 0 0 0 
0.0180469 0.0211406 0 0 0 0 0 0 
0.0180469 0.0212344 0 0 0 0 0 0 
0.0180469 0.0213281 0 0 0 0 0 0 
0.0180469 0.0214219 0 0 0 0 0 0 
0.0180469 0.0215156 0 0 0 0 0 0 
0.00601562 0.00154688 2.033 7.58649e+21 5.04502e-05 20.544 1.49392 2.82238 
0.00492187 0.00164063 0 0 0 0 0 0 
0.00601562 0.00164063 2.3083 3.5547e+21 2.36388e-05 26.3577 19.5525 -3.65649 
0.00710937 0.00210938 1.85834 3.61292e+21 2.40259e-05 7.81222 16.8615 -0.782056 
0.00820312 0.00210938 1.93546 3.87782e+21 2.57875e-05 9.19641 20.6614 -4.32081 
0.00710937 0.00220313 1.91594 3.45918e+21 2.30035e-05 0.488644 17.6425 1.95944 
0.00820312 0.00220313 1.91301 4.25528e+21 2.82976e-05 5.34953 19.4499 -1.37968 
0.00710937 0.00267187 1.97659 3.33447e+21 2.21742e-05 1.2254 14.2028 -3.35688 
0.00820312 0.00267187 1.97573 3.71787e+21 2.47239e-05 0.133691 22.5113 4.23365 
0.00710937 0.00276562 1.91084 3.65358e+21 2.42963e-05 2.89139 10.8631 -2.54316 
0.00820312 0.00276562 1.92995 3.42348e+21 2.27661e-05 5.51657 20.9213 -5.12737 
0.00710937 0.00464062 1.98158 3.13396e+21 2.08409e-05 -0.653833 7.29941 0.111811 
0.00820312 0.00473437 1.96396 3.29484e+21 2.19107e-05 -2.55626 8.25788 -2.07403 
0.00820312 0.00482812 2.02803 3.13763e+21 2.08653e-05 -0.774013 11.4757 -0.457861 
0.00710937 0.00492187 1.95058 3.0148e+21 2.00484e-05 -1.18604 6.38744 0.115013 
0.00820312 0.00492187 1.92366 3.42791e+21 2.27956e-05 -2.43477 11.1379 -0.626238 
0.00710937 0.00520312 1.947 3.26052e+21 2.16824e-05 -1.07552 6.71822 1.28573 
0.00820312 0.00520312 1.93715 3.16506e+21 2.10476e-05 -0.495563 8.62295 -0.00432882 
0.0136719 0.00454687 1.98052 2.43393e+21 1.61856e-05 8.8216 -0.859155 2.11863 
0.0147656 0.00454687 2.03943 2.54658e+21 1.69347e-05 -2.69743 -2.57704 -0.872165 
0.0136719 0.00464062 1.94148 2.50182e+21 1.66371e-05 -2.74988 -1.69191 1.46659 
0.0147656 0.00464062 1.908 2.46168e+21 1.63702e-05 4.6244 0.0883866 -1.67467 
0.0136719 0.00473437 1.87411 2.38015e+21 1.5828e-05 -1.08097 2.4946 -2.09581 
0.0147656 0.00473437 1.85767 2.5408e+21 1.68963e-05 2.19533 -1.47814 4.74797 
0.0136719 0.00482812 2.01522 2.48503e+21 1.65255e-05 -0.739541 2.05352 -1.1155 
0.0147656 0.00482812 1.97812 2.45931e+21 1.63544e-05 0.770812 -1.46119 -0.619701 
0.0158594 0.00473437 1.98775 2.43589e+21 1.61986e-05 -0.557758 -0.0419628 2.19739 
0.0169531 0.00473437 1.9648 2.65554e+21 1.76594e-05 -2.72473 -2.11525 -0.655333 
0.0169531 0.00482812 2.11162 2.39823e+21 1.59482e-05 0.122906 -2.36202 -1.82879 
0.0158594 0.00492187 2.0677 2.4377e+21 1.62107e-05 -0.281086 -1.13101 -0.359575 
0.0169531 0.00492187 1.99894 2.39985e+21 1.5959e-05 -4.21424 -0.196203 -0.122284 
0.0158594 0.00501562 1.90484 2.51282e+21 1.67103e-05 -0.107375 -0.657811 2.61595 
0.0169531 0.00501562 1.98965 2.43855e+21 1.62164e-05 3.3927 -3.94712 0.936561 
0.0158594 0.00510937 2.07874 2.51836e+21 1.67471e-05 0.304432 -3.397 2.20985 
0.0169531 0.00510937 2.03042 2.62468e+21 1.74541e-05 3.98939 -2.46838 -4.58807 
0.0158594 0.00520312 2.05368 2.50281e+21 1.66437e-05 5.24988 -3.81196 2.00626 
0.0169531 0.00520312 2.00697 2.44315e+21 1.6247e-05 2.74777 2.03194 -0.72221 
0.00710937 0.00529687 1.98142 3.29365e+21 2.19028e-05 3.75569 5.49115 -2.73308 
0.00710937 0.00576562 2.00942 3.10125e+21 2.06233e-05 0.418626 8.20763 -0.235141 
0.00710937 0.00585938 2.0374 3.15759e+21 2.0998e-05 -0.455966 8.25218 -1.20648 
0.00710937 0.00595313 1.94429 3.32687e+21 2.21237e-05 -3.2021 4.34088 0.153815 
0.0136719 0.00548437 1.95488 2.42541e+21 1.6129e-05 -0.6155 0.686865 -1.11548 
0.0147656 0.00548437 1.99876 2.41409e+21 1.60537e-05 -0.84435 -0.692763 -0.480757 
0.0136719 0.00557812 2.03931 2.31786e+21 1.54138e-05 2.41336 -0.952992 1.48155 
0.0147656 0.00567187 1.99786 2.48753e+21 1.65421e-05 0.654701 -0.160602 0.79683 
0.0136719 0.00576562 2.16201 2.35286e+21 1.56465e-05 -0.244562 -1.68457 -0.477462 
0.0169531 0.00567187 1.89529 2.38901e+21 1.58869e-05 0.0690185 -2.83649 -0.161543 
0.0169531 0.00576562 2.02119 2.53861e+21 1.68818e-05 5.45666 -3.53621 -0.55449 
0.0169531 0.00585938 2.04536 2.44766e+21 1.6277e-05 1.01653 -3.78636 0.199205 
0.0169531 0.00595313 2.03098 2.4378e+21 1.62113e-05 -0.147587 0.848722 -1.87992 
0.0147656 0.00754687 2.00319 2.55438e+21 1.69866e-05 0.514941 -5.84446 0.84683 
0.0136719 0.00764062 1.98655 2.53929e+21 1.68863e-05 -1.24838 -3.87362 1.51589 
0.0103906 0.00867188 0 0 0 0 0 0 
0.0103906 0.00876563 0 0 0 0 0 0 
0.0103906 0.00885938 0 0 0 0 0 0 
0.00929687 0.00895312 1.93702 3.01197e+21 2.00296e-05 0.172276 4.87051 -1.13828 
0.0103906 0.00895312 0 0 0 0 0 0 
0.0202344 0.00473437 2.06261 2.50801e+21 1.66783e-05 1.07349 2.63775 1.9651 
0.0213281 0.00473437 1.98316 2.66866e+21 1.77466e-05 0.480231 1.15849 4.09031 
0.0202344 0.00482812 1.89044 2.49468e+21 1.65896e-05 1.8505 1.15425 -0.47299 
0.0213281 0.00482812 1.83962 2.58147e+21 1.71668e-05 2.22346 -1.27034 2.39291 