ITEM: TIMESTEP
500000
ITEM: NUMBER OF CELLS
10927
ITEM: BOX BOUNDS oo ao pp
0 0.12
0 0.03
-0.1 0.1
ITEM: CELLS xc yc f_out[1] f_out[2] f_out[3] f_out[4] f_out[5] f_out[6] 
0.075 0.00075 0.732654 1.60334e+20 1.06622e-06 166.992 24.0611 2.37272 
0.081 0.00075 0.549479 4.5035e+19 2.99482e-07 175.972 14.21 0.547171 
0.087 0.00075 0.602165 2.12207e+19 1.41117e-07 180.031 9.60204 -1.09482 
0.093 0.00075 0.390949 1.24966e+19 8.31025e-08 176.356 5.99255 -0.289361 
0.099 0.00075 0.459162 6.60198e+18 4.39032e-08 176.486 7.75447 -0.843393 
0.105 0.00075 0.37003 4.00835e+18 2.66555e-08 196.013 5.50743 -0.211932 
0.111 0.00075 0.380909 1.88628e+18 1.25438e-08 175.999 4.72904 0.757841 
0.117 0.00075 0.441276 4.00835e+18 2.66555e-08 175.467 2.11354 0.257302 
0.081 0.00225 0.610519 4.23627e+19 2.81712e-07 173.28 29.7471 -0.682584 
0.087 0.00225 0.544821 2.13778e+19 1.42163e-07 179.024 22.3815 0.821686 
0.093 0.00225 0.529104 1.27324e+19 8.46704e-08 180.235 17.0711 -0.748635 
0.099 0.00225 0.532526 8.09529e+18 5.38337e-08 173.65 12.2837 0.566802 
0.105 0.00225 0.404393 5.58025e+18 3.71086e-08 180.884 12.4661 0.985055 
0.111 0.00225 0.303254 3.92975e+18 2.61328e-08 180.843 9.83714 0.221395 
0.117 0.00225 0.315599 2.90802e+18 1.93383e-08 161.856 7.32154 0.000169562 
0.003 0.00375 0 0 0 0 0 0 
0.009 0.00375 0 0 0 0 0 0 
0.015 0.00375 0 0 0 0 0 0 
0.021 0.00375 0 0 0 0 0 0 
0.081 0.00375 0.526855 3.89989e+19 2.59342e-07 168.81 47.8558 0.311146 
0.087 0.00375 0.481411 2.03718e+19 1.35473e-07 169.044 33.9494 -0.212254 
0.093 0.00375 0.446044 1.13648e+19 7.55762e-08 173.077 26.5243 -0.0413885 
0.099 0.00375 0.498727 9.47856e+18 6.30324e-08 173.852 20.7348 -0.175656 
0.105 0.00375 0.529393 5.61169e+18 3.73177e-08 179.765 18.3111 0.648552 
0.111 0.00375 0.630724 3.77256e+18 2.50875e-08 180.565 14.978 -0.380008 
0.117 0.00375 0.387188 3.15952e+18 2.10108e-08 176.625 14.3615 -1.40691 
0.003 0.00525 0 0 0 0 0 0 
0.009 0.00525 0 0 0 0 0 0 
0.015 0.00525 0 0 0 0 0 0 
0.021 0.00525 0 0 0 0 0 0 
0.069 0.00525 0.803905 3.6741e+19 2.44328e-07 71.7993 129.002 0.497101 
0.087 0.00525 0.492242 1.95702e+19 1.30142e-07 170.626 47.2961 -0.365682 
0.093 0.00525 0.486739 1.13851e+19 7.57106e-08 177.254 36.4831 0.35914 
0.099 0.00525 0.388163 7.34302e+18 4.88311e-08 171.663 29.2746 0.28599 
0.105 0.00525 0.418256 5.22096e+18 3.47194e-08 176.963 25.132 -0.315683 
0.111 0.00525 0.5227 4.41255e+18 2.93435e-08 180.294 21.8033 -0.269563 
0.117 0.00525 0.411783 3.03152e+18 2.01596e-08 171.624 18.1699 -0.325634 
0.003 0.00675 0 0 0 0 0 0 
0.009 0.00675 0 0 0 0 0 0 
0.015 0.00675 0 0 0 0 0 0 
0.021 0.00675 0 0 0 0 0 0 
0.069 0.00675 0.777692 1.70894e+19 1.13644e-07 55.2275 134.795 0.125329 
0.081 0.00675 0.536976 2.79274e+19 1.85717e-07 154.008 79.068 0.264942 
0.087 0.00675 0.490514 1.64788e+19 1.09584e-07 164.74 57.4518 0.255871 
0.093 0.00675 0.490586 1.06103e+19 7.05587e-08 171.852 45.9733 -0.645584 
0.099 0.00675 0.495648 6.41859e+18 4.26837e-08 177.821 38.9969 0.498813 
0.105 0.00675 0.514057 4.8205e+18 3.20563e-08 173.969 32.7114 0.154126 
0.111 0.00675 0.527266 3.77256e+18 2.50875e-08 179.402 28.9218 0.950911 
0.117 0.00675 0.531553 3.43198e+18 2.28227e-08 181.944 25.1836 0.188665 
0.003 0.00825 0 0 0 0 0 0 
0.009 0.00825 0 0 0 0 0 0 
0.015 0.00825 0 0 0 0 0 0 
0.021 0.00825 0 0 0 0 0 0 
0.027 0.00825 0 0 0 0 0 0 
0.033 0.00825 0 0 0 0 0 0 
0.039 0.00825 0 0 0 0 0 0 
0.045 0.00825 0 0 0 0 0 0 
0.051 0.00825 0 0 0 0 0 0 
0.057 0.00825 0 0 0 0 0 0 
0.063 0.00825 0 0 0 0 0 0 
0.069 0.00825 0.581588 8.63996e+18 5.74557e-08 43.1808 135.087 -0.487988 
0.087 0.00825 0.472093 1.56261e+19 1.03914e-07 160.05 68.2285 -0.56167 
0.093 0.00825 0.528783 9.13131e+18 6.07232e-08 169.521 56.7377 0.322829 
0.099 0.00825 0.447542 6.96638e+18 4.63264e-08 173.815 45.1319 0.079474 
0.105 0.00825 0.462976 5.68028e+18 3.77738e-08 168.402 36.4369 -0.0559949 
0.111 0.00825 0.387648 4.07265e+18 2.70831e-08 175.633 33.6617 0.305832 
0.117 0.00825 0.492404 3.15095e+18 2.09538e-08 177.694 29.0633 0.150653 
0.003 0.00975 0 0 0 0 0 0 
0.009 0.00975 0 0 0 0 0 0 
0.015 0.00975 0 0 0 0 0 0 
0.021 0.00975 0 0 0 0 0 0 
0.027 0.00975 0 0 0 0 0 0 
0.033 0.00975 0 0 0 0 0 0 
0.039 0.00975 0 0 0 0 0 0 
0.045 0.00975 0 0 0 0 0 0 
0.051 0.00975 0 0 0 0 0 0 
0.057 0.00975 0 0 0 0 0 0 
0.063 0.00975 0 0 0 0 0 0 
0.069 0.00975 0.662101 3.44609e+18 2.29165e-08 33.7669 133.78 -1.20158 
0.075 0.00975 0.677851 1.5326e+19 1.01918e-07 98.686 130.589 0.402546 
0.081 0.00975 0.554502 1.62692e+19 1.0819e-07 136.962 102.102 -0.230189 
0.087 0.00975 0.511611 1.2551e+19 8.34643e-08 152.085 76.4319 0.0173023 
0.093 0.00975 0.520705 9.61278e+18 6.3925e-08 161.806 63.1584 0.0412037 
0.099 0.00975 0.465547 7.32748e+18 4.87277e-08 166.901 51.9772 0.0869528 
0.105 0.00975 0.44389 5.60443e+18 3.72695e-08 168.534 44.7624 0.106171 
0.111 0.00975 0.485753 4.26227e+18 2.83441e-08 179.167 39.3202 -0.63636 
0.117 0.00975 0.439934 3.28285e+18 2.1831e-08 174.788 34.3804 0.956134 
0.003 0.01125 0 0 0 0 0 0 
0.009 0.01125 0 0 0 0 0 0 
0.015 0.01125 0 0 0 0 0 0 
0.021 0.01125 0 0 0 0 0 0 
0.027 0.01125 0 0 0 0 0 0 
0.033 0.01125 0 0 0 0 0 0 
0.039 0.01125 0 0 0 0 0 0 
0.045 0.01125 0 0 0 0 0 0 
0.051 0.01125 0 0 0 0 0 0 
0.057 0.01125 0 0 0 0 0 0 
0.063 0.01125 0 0 0 0 0 0 
0.069 0.01125 0.549729 2.04347e+18 1.35891e-08 28.8705 136.576 -1.1371 
0.075 0.01125 0.641649 1.05632e+19 7.02451e-08 88.6638 132.268 -0.0991459 
0.081 0.01125 0.575706 1.2921e+19 8.59248e-08 128.273 109.268 -0.21329 
0.087 0.01125 0.512647 1.09404e+19 7.27539e-08 148.26 87.7266 -0.314817 
0.093 0.01125 0.433655 8.07957e+18 5.37291e-08 156.648 71.4262 -0.622207 
0.099 0.01125 0.515819 6.27188e+18 4.1708e-08 168.601 60.8697 0.180596 
0.105 0.01125 0.485357 4.84145e+18 3.21957e-08 171.781 51.6531 -0.517365 
0.111 0.01125 0.506676 3.59965e+18 2.39377e-08 170.811 44.3627 0.124318 
0.117 0.01125 0.466973 2.45217e+18 1.63069e-08 167.742 38.9845 -0.256196 
0.003 0.01275 0 0 0 0 0 0 
0.009 0.01275 0 0 0 0 0 0 
0.015 0.01275 0 0 0 0 0 0 
0.021 0.01275 0 0 0 0 0 0 
0.027 0.01275 0 0 0 0 0 0 
0.033 0.01275 0 0 0 0 0 0 
0.039 0.01275 0 0 0 0 0 0 
0.045 0.01275 0 0 0 0 0 0 
0.051 0.01275 0 0 0 0 0 0 
0.057 0.01275 0 0 0 0 0 0 
0.063 0.01275 0 0 0 0 0 0 
0.069 0.01275 0.537607 1.49793e+18 9.96123e-09 22.9786 137.914 0.353235 
0.075 0.01275 0.606984 7.17064e+18 4.76848e-08 82.0903 139.323 -0.651239 
0.081 0.01275 0.529646 9.66719e+18 6.42868e-08 120.597 115.134 0.116489 
0.087 0.01275 0.549087 9.33432e+18 6.20732e-08 144.663 96.4556 -0.122999 
0.093 0.01275 0.460729 7.68382e+18 5.10974e-08 158.037 80.5231 0.374025 
0.099 0.01275 0.496526 5.72819e+18 3.80925e-08 162.611 66.8626 0.0679797 
0.105 0.01275 0.421229 4.9931e+18 3.32041e-08 161.7 55.5516 -0.147657 
0.111 0.01275 0.553561 3.64773e+18 2.42574e-08 170.872 50.4192 0.839325 
0.117 0.01275 0.464353 3.10682e+18 2.06603e-08 169.824 43.7406 0.0245978 
0.003 0.01425 0 0 0 0 0 0 
0.009 0.01425 0 0 0 0 0 0 
0.015 0.01425 0 0 0 0 0 0 
0.021 0.01425 0 0 0 0 0 0 
0.027 0.01425 0 0 0 0 0 0 
0.033 0.01425 0 0 0 0 0 0 
0.039 0.01425 0 0 0 0 0 0 
0.045 0.01425 0 0 0 0 0 0 
0.051 0.01425 0 0 0 0 0 0 
0.057 0.01425 0 0 0 0 0 0 
0.063 0.01425 0 0 0 0 0 0 
0.069 0.01425 0.475259 1.00519e+18 6.68451e-09 17.3932 125.069 0.585924 
0.075 0.01425 0.58177 5.59679e+18 3.72187e-08 72.5683 138.067 -0.00663043 
0.081 0.01425 0.551794 8.30212e+18 5.52091e-08 112.761 121.714 0.00260248 
0.087 0.01425 0.512031 8.09115e+18 5.38062e-08 138.156 102.85 0.037726 
0.093 0.01425 0.451349 6.3662e+18 4.23352e-08 151.833 86.5281 -0.343646 
0.099 0.01425 0.47372 5.67125e+18 3.77138e-08 159.17 72.7878 0.00462355 
0.105 0.01425 0.476949 3.87184e+18 2.57477e-08 166.389 63.9327 0.808449 
0.111 0.01425 0.516588 3.41268e+18 2.26943e-08 171.502 56.5302 0.101475 
0.117 0.01425 0.466512 2.82942e+18 1.88157e-08 162.334 47.3498 -0.114919 
0.003 0.01575 0 0 0 0 0 0 
0.009 0.01575 0 0 0 0 0 0 
0.015 0.01575 0 0 0 0 0 0 
0.021 0.01575 0 0 0 0 0 0 
0.027 0.01575 0 0 0 0 0 0 
0.033 0.01575 0 0 0 0 0 0 
0.039 0.01575 0 0 0 0 0 0 
0.045 0.01575 0 0 0 0 0 0 
0.051 0.01575 0 0 0 0 0 0 
0.057 0.01575 0 0 0 0 0 0 
0.063 0.01575 0 0 0 0 0 0 
0.069 0.01575 0.744957 9.31913e+17 6.19722e-09 18.2911 139.763 1.10444 
0.075 0.01575 0.56047 3.83993e+18 2.55355e-08 65.7455 140.37 -0.140664 
0.081 0.01575 0.51478 6.45602e+18 4.29325e-08 103.043 123.434 0.346973 
0.087 0.01575 0.506575 6.57953e+18 4.37539e-08 129.115 105.304 -0.66396 
0.093 0.01575 0.52995 6.02936e+18 4.00953e-08 144.832 90.2774 0.0913697 
0.099 0.01575 0.477464 5.00763e+18 3.33007e-08 156.764 79.2856 -0.403922 
0.105 0.01575 0.427174 4.01957e+18 2.67302e-08 155.606 66.4484 0.362958 
0.111 0.01575 0.452521 3.35713e+18 2.23249e-08 169.914 61.7274 0.0766042 
0.117 0.01575 0.512582 2.661e+18 1.76957e-08 162.522 52.0785 -0.176231 
0.003 0.01725 0 0 0 0 0 0 
0.009 0.01725 0 0 0 0 0 0 
0.015 0.01725 0 0 0 0 0 0 
0.021 0.01725 0 0 0 0 0 0 
0.027 0.01725 0 0 0 0 0 0 
0.033 0.01725 0 0 0 0 0 0 
0.039 0.01725 0 0 0 0 0 0 
0.045 0.01725 0 0 0 0 0 0 
0.051 0.01725 0 0 0 0 0 0 
0.057 0.01725 0 0 0 0 0 0 
0.063 0.01725 0 0 0 0 0 0 
0.069 0.01725 0.628508 5.53582e+17 3.68132e-09 14.4215 132.138 -1.31888 
0.075 0.01725 0.581723 2.94219e+18 1.95656e-08 57.5924 134.876 0.111712 
0.081 0.01725 0.540906 4.62344e+18 3.07459e-08 98.4904 127.293 0.185356 
0.087 0.01725 0.506985 5.54608e+18 3.68814e-08 124.045 111.865 0.393166 
0.093 0.01725 0.49711 5.10526e+18 3.395e-08 140.739 96.9028 0.195781 
0.099 0.01725 0.467489 4.40816e+18 2.93142e-08 152.582 84.0202 -0.396105 
0.105 0.01725 0.507891 4.21338e+18 2.8019e-08 158.564 74.0355 0.192799 
0.111 0.01725 0.467632 3.13697e+18 2.08608e-08 157.749 62.4155 -0.0684346 
0.117 0.01725 0.460542 2.7064e+18 1.79976e-08 166.607 58.4723 -0.21933 
0.003 0.01875 0 0 0 0 0 0 
0.009 0.01875 0 0 0 0 0 0 
0.015 0.01875 0 0 0 0 0 0 
0.021 0.01875 0 0 0 0 0 0 
0.027 0.01875 0 0 0 0 0 0 
0.033 0.01875 0 0 0 0 0 0 
0.039 0.01875 0 0 0 0 0 0 
0.045 0.01875 0 0 0 0 0 0 
0.051 0.01875 0 0 0 0 0 0 
0.057 0.01875 0 0 0 0 0 0 
0.063 0.01875 0 0 0 0 0 0 
0.069 0.01875 0.467943 6.13041e+17 4.07672e-09 12.163 129.107 0.129454 
0.075 0.01875 0.449507 2.1315e+18 1.41745e-08 52.875 138.403 -0.721715 
0.081 0.01875 0.547453 3.99892e+18 2.65928e-08 91.9688 130.801 0.350562 
0.087 0.01875 0.503314 4.52707e+18 3.0105e-08 117.784 116.008 0.375867 
0.093 0.01875 0.482975 4.39503e+18 2.9227e-08 136.639 101.859 -0.204193 
0.099 0.01875 0.48215 3.73484e+18 2.48367e-08 148.331 89.0852 -0.426584 
0.105 0.01875 0.484914 3.62166e+18 2.4084e-08 150.757 76.4423 0.23556 
0.111 0.01875 0.478871 2.84828e+18 1.89411e-08 160.982 70.5709 0.0407647 
0.117 0.01875 0.446577 2.37671e+18 1.58051e-08 160.466 61.8664 0.0343422 
0.003 0.02025 0 0 0 0 0 0 
0.009 0.02025 0 0 0 0 0 0 
0.015 0.02025 0 0 0 0 0 0 
0.021 0.02025 0 0 0 0 0 0 
0.027 0.02025 0 0 0 0 0 0 
0.033 0.02025 0 0 0 0 0 0 
0.039 0.02025 0 0 0 0 0 0 
0.045 0.02025 0 0 0 0 0 0 
0.051 0.02025 0 0 0 0 0 0 
0.057 0.02025 0 0 0 0 0 0 
0.063 0.02025 0 0 0 0 0 0 
0.069 0.02025 0.383051 4.36639e+17 2.90365e-09 13.4828 131.566 1.35981 
0.075 0.02025 0.508047 1.83388e+18 1.21953e-08 51.025 141.952 0.0144406 
0.081 0.02025 0.511994 3.30099e+18 2.19516e-08 87.9953 135.758 0.302985 
0.087 0.02025 0.518088 4.14807e+18 2.75847e-08 118.033 122.749 -0.0525653 
0.093 0.02025 0.478496 4.17427e+18 2.77589e-08 131.343 105.952 -0.00626185 
0.099 0.02025 0.557762 3.37085e+18 2.24162e-08 144.764 94.357 0.317088 
0.105 0.02025 0.550435 3.26606e+18 2.17193e-08 156.467 85.3473 -0.23608 
0.111 0.02025 0.558797 3.06521e+18 2.03836e-08 167.515 78.6696 0.0256468 
0.117 0.02025 0.376967 2.42771e+18 1.61443e-08 154.959 63.2072 0.179006 
0.003 0.02175 0 0 0 0 0 0 
0.009 0.02175 0 0 0 0 0 0 
0.015 0.02175 0 0 0 0 0 0 
0.021 0.02175 0 0 0 0 0 0 
0.027 0.02175 0 0 0 0 0 0 
0.033 0.02175 0 0 0 0 0 0 
0.039 0.02175 0 0 0 0 0 0 
0.045 0.02175 0 0 0 0 0 0 
0.051 0.02175 0 0 0 0 0 0 
0.057 0.02175 0 0 0 0 0 0 
0.063 0.02175 0 0 0 0 0 0 
0.069 0.02175 0.580363 4.30918e+17 2.8656e-09 11.2374 138.789 1.19436 
0.075 0.02175 0.628636 1.46349e+18 9.73223e-09 48.3347 143.12 -0.262656 
0.081 0.02175 0.456614 2.76438e+18 1.83831e-08 80.0233 131.449 -0.154992 
0.087 0.02175 0.552922 3.44734e+18 2.29248e-08 110.274 125.618 0.832183 
0.093 0.02175 0.485822 3.51238e+18 2.33574e-08 129.358 112.306 0.0746198 
0.099 0.02175 0.506379 3.47173e+18 2.3087e-08 140.419 97.8821 -0.853012 
0.105 0.02175 0.518661 3.15464e+18 2.09784e-08 152.364 89.8925 0.256137 
0.111 0.02175 0.44972 2.78064e+18 1.84912e-08 157.757 79.9606 -0.802358 
0.117 0.02175 0.471309 2.13833e+18 1.42199e-08 159.201 70.5415 0.138087 
0.003 0.02325 0 0 0 0 0 0 
0.009 0.02325 0 0 0 0 0 0 
0.015 0.02325 0 0 0 0 0 0 
0.021 0.02325 0 0 0 0 0 0 
0.027 0.02325 0 0 0 0 0 0 
0.033 0.02325 0 0 0 0 0 0 
0.039 0.02325 0 0 0 0 0 0 
0.045 0.02325 0 0 0 0 0 0 
0.051 0.02325 0 0 0 0 0 0 
0.057 0.02325 0 0 0 0 0 0 
0.063 0.02325 0 0 0 0 0 0 
0.069 0.02325 0.324159 4.10722e+17 2.7313e-09 7.82689 117.96 1.31041 
0.075 0.02325 0.448157 1.21696e+18 8.09275e-09 41.9152 133.021 0.09995 
0.081 0.02325 0.552871 2.15249e+18 1.43141e-08 76.4506 134.482 0.212986 
0.087 0.02325 0.484244 2.89787e+18 1.92709e-08 105.21 128.223 0.256459 
0.093 0.02325 0.528702 3.0576e+18 2.0333e-08 125.704 116.636 -0.0660822 
0.099 0.02325 0.492786 2.87506e+18 1.91191e-08 140.152 104.31 -0.0414374 
0.105 0.02325 0.6219 2.89787e+18 1.92709e-08 152.565 95.9423 -0.428203 
0.111 0.02325 0.539823 2.40349e+18 1.59832e-08 151.538 81.9024 0.0891643 
0.117 0.02325 0.513195 2.1677e+18 1.44152e-08 156.683 74.8326 -0.423368 
0.003 0.02475 0 0 0 0 0 0 
0.009 0.02475 0 0 0 0 0 0 
0.015 0.02475 0 0 0 0 0 0 
0.021 0.02475 0 0 0 0 0 0 
0.027 0.02475 0 0 0 0 0 0 
0.033 0.02475 0 0 0 0 0 0 
0.039 0.02475 0 0 0 0 0 0 
0.045 0.02475 0 0 0 0 0 0 
0.051 0.02475 0 0 0 0 0 0 
0.057 0.02475 0 0 0 0 0 0 
0.063 0.02475 0 0 0 0 0 0 
0.069 0.02475 0.559748 3.07235e+17 2.04311e-09 8.61009 127.982 0.74601 
0.075 0.02475 0.496665 8.21675e+17 5.46414e-09 39.6459 140.761 0.293498 
0.081 0.02475 0.461957 1.67193e+18 1.11183e-08 73.7424 140.532 0.270913 
0.087 0.02475 0.553464 2.60793e+18 1.73427e-08 99.826 131.013 -0.00791608 
0.093 0.02475 0.533634 2.73654e+18 1.8198e-08 120.332 118.451 -0.299673 
0.099 0.02475 0.548531 2.72939e+18 1.81505e-08 133.606 106.515 -0.326114 
0.105 0.02475 0.496467 2.5722e+18 1.71051e-08 140.384 94.1009 -0.158836 
0.111 0.02475 0.442069 2.32213e+18 1.54421e-08 151.576 87.0201 -0.228218 
0.117 0.02475 0.494496 2.0792e+18 1.38267e-08 158.349 80.2048 -0.265851 
0.003 0.02625 0 0 0 0 0 0 
0.009 0.02625 0 0 0 0 0 0 
0.015 0.02625 0 0 0 0 0 0 
0.021 0.02625 0 0 0 0 0 0 
0.027 0.02625 0 0 0 0 0 0 
0.033 0.02625 0 0 0 0 0 0 
0.039 0.02625 0 0 0 0 0 0 
0.045 0.02625 0 0 0 0 0 0 
0.051 0.02625 0 0 0 0 0 0 
0.057 0.02625 0 0 0 0 0 0 
0.063 0.02625 5.67605e-16 6.73672e+15 4.47992e-11 -23.4019 98.8598 -1.96378 
0.069 0.02625 0.391789 2.62732e+17 1.74717e-09 7.49884 126.365 1.38455 
0.075 0.02625 0.591993 8.08406e+17 5.3759e-09 40.1877 148.806 0.792473 
0.081 0.02625 0.531253 1.44839e+18 9.63182e-09 69.0326 137.589 0.547086 
0.087 0.02625 0.503475 2.02775e+18 1.34845e-08 95.796 132.139 0.125312 
0.093 0.02625 0.473825 2.65427e+18 1.76509e-08 115.02 120.287 -0.434982 
0.099 0.02625 0.495584 2.30396e+18 1.53213e-08 130.171 109.263 -0.0489007 
0.105 0.02625 0.486621 2.1827e+18 1.45149e-08 141.476 100.363 -0.169245 
0.111 0.02625 0.447465 1.86607e+18 1.24094e-08 146.392 88.791 -0.174764 
0.117 0.02625 0.471684 1.94017e+18 1.29022e-08 148.813 79.3543 -0.237584 
0.003 0.02775 0 0 0 0 0 0 
0.009 0.02775 0 0 0 0 0 0 
0.015 0.02775 0 0 0 0 0 0 
0.021 0.02775 0 0 0 0 0 0 
0.027 0.02775 0 0 0 0 0 0 
0.033 0.02775 0 0 0 0 0 0 
0.039 0.02775 0 0 0 0 0 0 
0.045 0.02775 0 0 0 0 0 0 
0.051 0.02775 0 0 0 0 0 0 
0.057 0.02775 0 0 0 0 0 0 
0.063 0.02775 0 0 0 0 0 0 
0.069 0.02775 0.619757 2.35785e+17 1.56797e-09 5.39633 127.924 1.47424 
0.075 0.02775 0.589976 7.13728e+17 4.74629e-09 37.4798 142.412 -0.103035 
0.081 0.02775 0.550535 1.22353e+18 8.1365e-09 71.183 146.71 -0.235996 
0.087 0.02775 0.595577 1.64412e+18 1.09334e-08 92.101 134.348 0.334545 
0.093 0.02775 0.523026 2.33236e+18 1.55102e-08 109.676 121.152 0.253599 
0.099 0.02775 0.561304 2.12844e+18 1.41541e-08 126.973 113.098 -0.180744 
0.105 0.02775 0.505169 2.00099e+18 1.33066e-08 137.537 103.504 -0.145104 
0.111 0.02775 0.449277 2.01373e+18 1.33913e-08 148.23 95.4838 0.0692123 
0.117 0.02775 0.459051 1.52942e+18 1.01706e-08 148.839 83.7866 0.116783 
0.003 0.02925 0 0 0 0 0 0 
0.009 0.02925 0 0 0 0 0 0 
0.015 0.02925 0 0 0 0 0 0 
0.021 0.02925 0 0 0 0 0 0 
0.027 0.02925 0 0 0 0 0 0 
0.033 0.02925 0 0 0 0 0 0 
0.039 0.02925 0 0 0 0 0 0 
0.045 0.02925 0 0 0 0 0 0 
0.051 0.02925 0 0 0 0 0 0 
0.057 0.02925 0 0 0 0 0 0 
0.063 0.02925 0.181979 1.20915e+16 8.04088e-11 -18.068 122.303 3.65477 
0.069 0.02925 0.448811 1.93465e+17 1.28654e-09 8.76923 140.604 0.799758 
0.075 0.02925 0.517177 5.98531e+17 3.98023e-09 33.3936 135.814 -0.290187 
0.081 0.02925 0.521223 1.10638e+18 7.3574e-09 63.5136 144.977 0.373116 
0.087 0.02925 0.526264 1.52353e+18 1.01315e-08 88.9803 134.511 0.0182591 
0.093 0.02925 0.488154 1.81978e+18 1.21015e-08 104.562 122.196 -0.404283 
0.099 0.02925 0.555622 1.98906e+18 1.32272e-08 121.037 114.278 0.0507782 
0.105 0.02925 0.504112 1.95278e+18 1.2986e-08 132.842 105.441 -0.0225023 
0.111 0.02925 0.475983 1.95883e+18 1.30262e-08 143.03 97.1912 -0.0246039 
0.117 0.02925 0.457477 1.62631e+18 1.0815e-08 152.264 90.3683 -0.264924 
0.0015 0.000375 0 0 0 0 0 0 
0.0015 0.001125 0 0 0 0 0 0 
0.0705 0.000375 1.41683 7.5074e+20 4.99242e-06 139.335 17.7457 2.45049 
0.0015 0.001875 0 0 0 0 0 0 
0.0015 0.002625 0 0 0 0 0 0 
0.0045 0.002625 0 0 0 0 0 0 
0.0075 0.002625 0 0 0 0 0 0 
0.0105 0.002625 0 0 0 0 0 0 
0.0135 0.002625 0 0 0 0 0 0 
0.0165 0.002625 0 0 0 0 0 0 
0.0195 0.002625 0 0 0 0 0 0 
0.0225 0.002625 0 0 0 0 0 0 
0.0675 0.002625 1.58619 1.95814e+20 1.30216e-06 73.7504 114.773 -6.86305 
0.0255 0.007125 0 0 0 0 0 0 
0.0285 0.007125 0 0 0 0 0 0 
0.0315 0.007125 0 0 0 0 0 0 
0.0345 0.007125 0 0 0 0 0 0 
0.0375 0.007125 0 0 0 0 0 0 
0.0405 0.007125 0 0 0 0 0 0 
0.0435 0.007125 0 0 0 0 0 0 
0.0465 0.007125 0 0 0 0 0 0 
0.0495 0.007125 0 0 0 0 0 0 
0.0525 0.007125 0 0 0 0 0 0 
0.0555 0.007125 0 0 0 0 0 0 
0.0585 0.007125 0 0 0 0 0 0 
0.0615 0.007125 0 0 0 0 0 0 
0.0645 0.007125 0 0 0 0 0 0 
0.00375 0.0001875 0 0 0 0 0 0 
0.00375 0.0005625 0 0 0 0 0 0 
0.00375 0.0009375 0 0 0 0 0 0 
0.00375 0.0013125 0 0 0 0 0 0 
0.01875 0.0001875 3.74731 1.22231e+22 8.12836e-05 29.7076 5.85447 -0.324121 
0.02025 0.0001875 4.02349 1.22684e+22 8.15847e-05 27.3494 -1.41455 -1.43768 
0.02325 0.0001875 4.04587 1.08046e+22 7.18507e-05 26.9488 0.410205 3.55365 
0.02475 0.0001875 3.86429 9.46158e+21 6.29195e-05 35.4722 1.8438 1.05993 
0.02625 0.0001875 4.00524 9.47667e+21 6.30199e-05 19.9767 0.81003 -2.6406 
0.02775 0.0001875 4.10575 8.6618e+21 5.7601e-05 20.7978 -3.03485 -10.676 
0.02925 0.0001875 3.70856 8.72216e+21 5.80024e-05 16.1821 -1.83765 -7.27805 
0.03075 0.0001875 3.99846 8.87306e+21 5.90059e-05 9.3615 -3.59639 1.97851 
0.03225 0.0001875 4.05917 7.51494e+21 4.99744e-05 10.8844 -1.47811 2.537 
0.03375 0.0001875 4.15001 8.39018e+21 5.57947e-05 1.94988 3.87592 -5.78395 
0.03525 0.0001875 3.86604 9.03906e+21 6.01097e-05 -5.5515 2.03404 -5.14288 
0.03675 0.0001875 4.00212 7.90729e+21 5.25835e-05 6.14173 -3.3644 2.74471 
0.03825 0.0001875 3.93693 8.20909e+21 5.45905e-05 6.40895 6.9238 -3.81892 
0.03975 0.0001875 4.0569 8.57126e+21 5.69989e-05 1.93092 -5.41881 -0.615091 
0.04125 0.0001875 3.95606 8.76743e+21 5.83034e-05 7.74362 -0.556076 -4.92046 
0.04275 0.0001875 4.12693 7.99783e+21 5.31856e-05 4.56165 1.10727 -4.0102 
0.04425 0.0001875 4.02843 8.16382e+21 5.42894e-05 -2.29181 1.83234 -3.95577 
0.04575 0.0001875 4.15618 8.8127e+21 5.86045e-05 4.70834 2.63412 -2.33704 
0.04725 0.0001875 3.95032 8.55617e+21 5.68985e-05 2.71264 4.38765 5.21008 
0.04875 0.0001875 3.87806 8.42036e+21 5.59954e-05 4.18458 2.38795 -0.382794 
0.05025 0.0001875 3.97259 8.5109e+21 5.65975e-05 4.16393 -4.1046 -3.26195 
0.05175 0.0001875 3.74001 8.55617e+21 5.68985e-05 11.0301 -3.41639 -2.10381 
0.05325 0.0001875 3.92266 8.16382e+21 5.42894e-05 1.44904 -3.88701 -4.71646 
0.05475 0.0001875 3.90112 8.17891e+21 5.43898e-05 6.79183 -10.4568 3.05312 
0.05625 0.0001875 4.09499 8.90325e+21 5.92066e-05 2.99925 -0.589732 -1.19973 
0.05775 0.0001875 4.1778 8.39018e+21 5.57947e-05 10.3502 4.15014 -1.41415 
0.05925 0.0001875 3.9098 8.29964e+21 5.51926e-05 6.26716 -4.10066 4.45232 
0.06075 0.0001875 4.16062 7.99783e+21 5.31856e-05 16.8783 2.71846 0.237463 
0.06225 0.0001875 3.93193 7.30368e+21 4.85695e-05 29.9087 -8.7232 -8.83185 
0.06375 0.0001875 3.92012 6.91133e+21 4.59604e-05 38.7483 6.89091 0.785708 
0.06525 0.0001875 3.46408 5.35704e+21 3.56243e-05 59.5554 0.242742 -1.68169 
0.06525 0.0005625 3.91998 5.59848e+21 3.72299e-05 48.2174 -1.45651 -1.64928 
0.06825 0.0009375 2.85578 2.08849e+21 1.38885e-05 104.285 12.3606 -1.94134 
0.00375 0.0016875 0 0 0 0 0 0 
0.00375 0.0020625 0 0 0 0 0 0 
0.06675 0.0020625 4.08311 3.99989e+21 2.65993e-05 35.5019 -2.73929 3.08297 
0.06825 0.0020625 3.15217 1.06493e+21 7.08181e-06 76.2024 45.9535 -0.964961 
0.06375 0.0039375 3.82096 8.13795e+21 5.41174e-05 1.55902 1.06676 2.229 
0.06525 0.0039375 0 0 0 0 0 0 
0.06375 0.0043125 3.86167 8.01095e+21 5.32728e-05 -2.24895 1.58658 -5.4484 
0.06525 0.0043125 0 0 0 0 0 0 
0.06375 0.0046875 3.81268 8.26644e+21 5.49718e-05 -0.829696 3.27988 0.27122 
0.06525 0.0046875 0 0 0 0 0 0 
0.06525 0.0050625 0 0 0 0 0 0 
0.06525 0.0054375 0 0 0 0 0 0 
0.06525 0.0058125 0 0 0 0 0 0 
0.02475 0.0065625 0 0 0 0 0 0 
0.02625 0.0065625 0 0 0 0 0 0 
0.02775 0.0065625 0 0 0 0 0 0 
0.02925 0.0065625 0 0 0 0 0 0 
0.03075 0.0065625 0 0 0 0 0 0 
0.03225 0.0065625 0 0 0 0 0 0 
0.03375 0.0065625 0 0 0 0 0 0 
0.03525 0.0065625 0 0 0 0 0 0 
0.03675 0.0065625 0 0 0 0 0 0 
0.03825 0.0065625 0 0 0 0 0 0 
0.03975 0.0065625 0 0 0 0 0 0 
0.04125 0.0065625 0 0 0 0 0 0 
0.04275 0.0065625 0 0 0 0 0 0 
0.04425 0.0065625 0 0 0 0 0 0 
0.04575 0.0065625 0 0 0 0 0 0 
0.04725 0.0065625 0 0 0 0 0 0 
0.04875 0.0065625 0 0 0 0 0 0 
0.05025 0.0065625 0 0 0 0 0 0 
0.05175 0.0065625 0 0 0 0 0 0 
0.05325 0.0065625 0 0 0 0 0 0 
0.05475 0.0065625 0 0 0 0 0 0 
0.05625 0.0065625 0 0 0 0 0 0 
0.05775 0.0065625 0 0 0 0 0 0 
0.05925 0.0065625 0 0 0 0 0 0 
0.06075 0.0065625 0 0 0 0 0 0 
0.06225 0.0065625 0 0 0 0 0 0 
0.0675 0.003375 1.07372 5.44926e+19 3.62376e-07 35.4124 130.571 1.35395 
0.0705 0.003375 0.989225 1.55933e+20 1.03695e-06 109.405 109.722 2.22937 
0.0675 0.004125 1.00305 2.80084e+19 1.86256e-07 19.0359 125.006 7.40185 
0.0705 0.004125 0.84632 8.79693e+19 5.84996e-07 97.6137 118.346 -0.618734 
0.004875 0.00046875 3.8008 1.88326e+22 0.000125237 13.7609 -4.0817 -9.90638 
0.004875 0.00065625 4.34646 1.85222e+22 0.000123173 8.70272 -0.349552 1.04007 
0.004875 0.00084375 3.73331 2.10861e+22 0.000140223 10.0551 -5.28431 -3.80169 
0.004875 0.00103125 3.90845 2.05118e+22 0.000136403 7.59982 -5.06755 -1.51824 
0.004875 0.00121875 4.0267 1.8164e+22 0.000120791 10.4405 -1.74576 -4.7652 
0.004875 0.00140625 3.91231 1.95328e+22 0.000129893 7.88392 1.14257 1.73072 
0.007125 0.00046875 4.02495 1.85912e+22 0.000123631 16.3657 -5.23792 7.13795 
0.007875 0.00046875 3.93454 1.90741e+22 0.000126843 21.9589 -4.17317 -0.742965 
0.007875 0.00065625 4.00931 1.8436e+22 0.000122599 19.7169 3.19554 1.07736 
0.008625 0.00065625 4.07486 1.69873e+22 0.000112966 19.2603 0.758299 6.33218 
0.009375 0.00046875 3.78027 1.81083e+22 0.00012042 19.6302 -4.00202 -1.34718 
0.010125 0.00046875 4.29283 1.70218e+22 0.000113195 14.6612 -2.17175 4.55356 
0.010125 0.00065625 3.80932 1.59181e+22 0.000105855 18.3083 1.25812 -1.84374 
0.010875 0.00046875 3.88742 1.71425e+22 0.000113998 19.8607 -0.0554809 -0.226177 
0.011625 0.00046875 4.14729 1.56214e+22 0.000103882 22.5521 -0.412792 1.91877 
0.010875 0.00065625 4.16762 1.64009e+22 0.000109066 18.0189 -0.222099 1.80896 
0.012375 0.00046875 4.02075 1.68528e+22 0.000112071 22.4014 0.571566 2.82226 
0.013125 0.00046875 4.00924 1.5887e+22 0.000105649 14.1028 -2.55244 1.21993 
0.012375 0.00065625 3.99968 1.61423e+22 0.000107346 18.5765 5.71862 -1.73988 
0.013875 0.00046875 4.00252 1.44625e+22 9.61756e-05 13.1071 0.322414 5.95848 
0.014625 0.00046875 3.83418 1.5042e+22 0.000100029 27.0163 -1.57242 -3.67722 
0.014625 0.00065625 4.02168 1.42107e+22 9.45012e-05 15.261 -3.24694 -2.70157 
0.015375 0.00046875 4.04904 1.51627e+22 0.000100832 21.9005 0.311872 -1.85424 
0.016125 0.00046875 4.05212 1.45108e+22 9.64967e-05 24.6395 4.75259 1.83207 
0.015375 0.00065625 4.0812 1.44004e+22 9.57627e-05 31.4972 1.31182 -1.3317 
0.016125 0.00065625 4.01241 1.37451e+22 9.14046e-05 21.4318 -3.24133 0.998668 
0.016875 0.00046875 3.74746 1.36174e+22 9.0556e-05 20.6867 -6.39611 8.30418 
0.017625 0.00046875 3.75798 1.27241e+22 8.46152e-05 25.8489 -4.52929 -2.70821 
0.016875 0.00065625 4.04334 1.44866e+22 9.63361e-05 26.1795 1.16174 -5.06135 
0.017625 0.00065625 3.62864 1.2969e+22 8.62438e-05 20.0145 -6.01716 1.13391 
0.016875 0.00084375 3.84202 1.37087e+22 9.11625e-05 20.4728 0.209907 -5.46971 
0.017625 0.00084375 3.94917 1.29575e+22 8.61673e-05 14.6606 1.97297 -0.574875 
0.018375 0.00046875 3.83544 1.37382e+22 9.13588e-05 30.5847 1.19728 2.51047 
0.019125 0.00046875 3.91451 1.29173e+22 8.58997e-05 23.1318 1.92338 0.612361 
0.018375 0.00065625 3.84622 1.27275e+22 8.46382e-05 23.4285 1.63617 6.48415 
0.019125 0.00065625 3.95398 1.30897e+22 8.70466e-05 24.6876 2.88332 -2.30872 
0.019875 0.00046875 4.25039 1.14927e+22 7.64267e-05 25.5712 1.65392 5.37941 
0.020625 0.00046875 3.87693 1.16135e+22 7.72295e-05 25.4085 7.7562 -3.94426 
0.019875 0.00065625 4.09109 1.23826e+22 8.23445e-05 28.1819 1.83469 -2.42832 
0.021375 0.00046875 4.09952 1.14203e+22 7.5945e-05 28.0765 1.64275 -9.41152 
0.022125 0.00046875 3.75902 1.05752e+22 7.03254e-05 32.4679 -8.07829 -4.24081 
0.021375 0.00065625 3.74159 1.11582e+22 7.42018e-05 29.8828 0.76164 2.26468 
0.022125 0.00065625 3.82169 1.04511e+22 6.94996e-05 23.0435 -7.74299 -5.35786 
0.022875 0.00046875 4.03429 1.01165e+22 6.72747e-05 30.5752 4.35981 4.05767 
0.023625 0.00046875 3.90547 1.06235e+22 7.06465e-05 34.1254 2.24498 2.67123 
0.022875 0.00065625 4.02303 9.98543e+21 6.64031e-05 21.458 2.07139 1.33692 
0.023625 0.00065625 3.9441 1.01234e+22 6.73206e-05 27.6701 2.15791 2.47229 
0.019875 0.00084375 3.86269 1.28099e+22 8.51861e-05 25.5273 -0.838371 -3.15424 
0.020625 0.00084375 3.92697 1.19783e+22 7.96557e-05 25.2526 3.79698 -3.07484 
0.021375 0.00084375 4.00727 1.14283e+22 7.59985e-05 23.0163 -4.21074 2.49835 
0.022125 0.00084375 3.79577 1.15222e+22 7.66229e-05 30.1527 -3.40744 2.0322 
0.022875 0.00084375 3.7844 1.05967e+22 7.04681e-05 24.8851 0.414948 2.13737 
0.023625 0.00084375 4.05155 1.00065e+22 6.65433e-05 24.0549 3.15913 -0.0603072 
0.022875 0.00103125 3.88648 1.10515e+22 7.34928e-05 21.837 0.198669 1.98195 
0.024375 0.00084375 3.77625 1.00199e+22 6.66325e-05 29.2976 -4.87041 -1.11133 
0.025125 0.00084375 3.83995 1.00602e+22 6.69001e-05 29.0395 8.35748 2.49482 
0.024375 0.00103125 4.01942 1.00967e+22 6.71434e-05 22.2778 -0.973889 0.379808 
0.025125 0.00103125 4.01168 9.06512e+21 6.02831e-05 26.1623 1.16233 -2.49935 
0.025875 0.00084375 3.87285 8.67857e+21 5.77125e-05 29.4058 -1.2679 -3.09142 
0.026625 0.00084375 3.96061 8.78588e+21 5.84261e-05 16.7005 7.05195 -0.00591774 
0.025875 0.00103125 4.07449 8.93343e+21 5.94073e-05 14.9949 1.30605 6.45766 
0.026625 0.00103125 3.83781 8.59321e+21 5.71448e-05 22.9545 3.6257 -0.749073 
0.025875 0.00121875 3.85323 8.39482e+21 5.58256e-05 14.4281 4.46494 -2.09086 
0.025875 0.00140625 4.25045 9.02196e+21 5.9996e-05 18.4304 7.1082 -1.3819 
0.027375 0.00084375 3.96047 8.28958e+21 5.51257e-05 20.0147 2.78375 4.24377 
0.028125 0.00084375 3.96694 8.35664e+21 5.55717e-05 5.69878 2.24943 0.732708 
0.027375 0.00103125 4.00834 8.06642e+21 5.36417e-05 11.8035 4.87764 3.05103 
0.028125 0.00103125 3.99107 8.26397e+21 5.49554e-05 12.4948 0.120163 -0.180329 
0.028875 0.00084375 4.23754 8.57126e+21 5.69989e-05 2.08474 2.42734 -3.08873 
0.029625 0.00084375 4.09834 8.27616e+21 5.50365e-05 1.28017 -4.70312 1.02684 
0.028875 0.00103125 4.10798 8.25299e+21 5.48824e-05 8.33579 5.02607 0.215445 
0.029625 0.00103125 4.10302 8.38469e+21 5.57582e-05 12.5425 -1.82008 -2.18089 
0.027375 0.00121875 4.13368 8.72913e+21 5.80487e-05 15.5162 0.00502788 3.95846 
0.028125 0.00121875 4.2429 8.51554e+21 5.66284e-05 9.56439 0.935107 -3.91421 
0.028875 0.00121875 3.82532 8.36696e+21 5.56403e-05 11.6242 0.329408 -1.24136 
0.029625 0.00140625 3.88086 8.12056e+21 5.40018e-05 3.25836 2.38765 -0.811599 
0.030375 0.00046875 4.0829 7.79864e+21 5.1861e-05 1.12803 6.27759 4.78885 
0.031125 0.00046875 4.33169 7.94351e+21 5.28243e-05 13.5679 11.5933 -0.428248 
0.030375 0.00065625 3.98995 8.3988e+21 5.5852e-05 10.2711 0.97445 -6.85611 
0.031125 0.00065625 3.87263 8.69198e+21 5.78017e-05 9.20917 7.9719 -0.519234 
0.030375 0.00084375 4.07566 8.85294e+21 5.88721e-05 7.25394 1.99416 -1.47245 
0.031125 0.00084375 3.8767 9.01391e+21 5.99425e-05 15.6733 -0.964043 1.82121 
0.030375 0.00103125 4.04457 8.95538e+21 5.95532e-05 4.93058 -0.0970508 -1.24843 
0.031125 0.00103125 4.15647 8.71393e+21 5.79476e-05 5.70669 2.67641 -3.25227 
0.031875 0.00084375 4.42917 8.28958e+21 5.51257e-05 8.14817 -2.63148 9.39214 
0.032625 0.00084375 3.99691 7.8201e+21 5.20037e-05 10.3949 5.57828 -5.59671 
0.031875 0.00103125 3.89182 8.02252e+21 5.33498e-05 1.48454 -4.7613 -4.21163 
0.032625 0.00103125 4.14144 7.60548e+21 5.05765e-05 7.29367 -0.933748 -2.26107 
0.031875 0.00121875 4.13548 8.77556e+21 5.83575e-05 9.24786 -0.0289701 -0.543146 
0.032625 0.00121875 3.94714 8.80342e+21 5.85427e-05 0.754623 -2.27322 2.25442 
0.033375 0.00084375 3.96419 8.32982e+21 5.53933e-05 0.969345 -3.01897 1.64834 
0.034125 0.00084375 3.94566 8.35664e+21 5.55717e-05 3.62639 2.70111 -0.902856 
0.033375 0.00103125 3.95149 8.26397e+21 5.49554e-05 7.77237 1.55576 -0.10526 