ITEM: TIMESTEP
500000
ITEM: NUMBER OF CELLS
24371
ITEM: BOX BOUNDS oo ao pp
0 0.12
0 0.03
-0.1 0.1
ITEM: CELLS xc yc f_out[1] f_out[2] f_out[3] f_out[4] f_out[5] f_out[6] 
0.003 0.00375 0 0 0 0 0 0 
0.003 0.00525 0 0 0 0 0 0 
0.003 0.00675 0 0 0 0 0 0 
0.003 0.00825 0 0 0 0 0 0 
0.003 0.00975 0 0 0 0 0 0 
0.003 0.01125 0 0 0 0 0 0 
0.003 0.01275 0 0 0 0 0 0 
0.003 0.01425 0 0 0 0 0 0 
0.003 0.01575 0 0 0 0 0 0 
0.003 0.01725 0 0 0 0 0 0 
0.003 0.01875 0 0 0 0 0 0 
0.003 0.02025 0 0 0 0 0 0 
0.003 0.02175 0 0 0 0 0 0 
0.003 0.02325 0 0 0 0 0 0 
0.027 0.02325 0 0 0 0 0 0 
0.003 0.02475 0 0 0 0 0 0 
0.027 0.02475 0 0 0 0 0 0 
0.003 0.02625 0 0 0 0 0 0 
0.027 0.02625 0 0 0 0 0 0 
0.003 0.02775 0 0 0 0 0 0 
0.027 0.02775 0 0 0 0 0 0 
0.003 0.02925 0 0 0 0 0 0 
0.027 0.02925 0 0 0 0 0 0 
0.009 0.01425 0 0 0 0 0 0 
0.009 0.01575 0 0 0 0 0 0 
0.009 0.01725 0 0 0 0 0 0 
0.009 0.01875 0 0 0 0 0 0 
0.009 0.02025 0 0 0 0 0 0 
0.009 0.02175 0 0 0 0 0 0 
0.009 0.02325 0 0 0 0 0 0 
0.009 0.02475 0 0 0 0 0 0 
0.009 0.02625 0 0 0 0 0 0 
0.009 0.02775 0 0 0 0 0 0 
0.009 0.02925 0 0 0 0 0 0 
0.015 0.01425 0 0 0 0 0 0 
0.015 0.01575 0 0 0 0 0 0 
0.015 0.01725 0 0 0 0 0 0 
0.015 0.01875 0 0 0 0 0 0 
0.015 0.02025 0 0 0 0 0 0 
0.015 0.02175 0 0 0 0 0 0 
0.015 0.02325 0 0 0 0 0 0 
0.015 0.02475 0 0 0 0 0 0 
0.015 0.02625 0 0 0 0 0 0 
0.015 0.02775 0 0 0 0 0 0 
0.015 0.02925 0 0 0 0 0 0 
0.021 0.02325 0 0 0 0 0 0 
0.021 0.02475 0 0 0 0 0 0 
0.021 0.02625 0 0 0 0 0 0 
0.021 0.02775 0 0 0 0 0 0 
0.021 0.02925 0 0 0 0 0 0 
0.0015 0.000375 0 0 0 0 0 0 
0.0015 0.001125 0 0 0 0 0 0 
0.0015 0.001875 0 0 0 0 0 0 
0.0015 0.002625 0 0 0 0 0 0 
0.0045 0.002625 0 0 0 0 0 0 
0.0255 0.022125 0 0 0 0 0 0 
0.0285 0.022125 0 0 0 0 0 0 
0.0105 0.000375 1.94 3.07499e+21 2.04487e-05 7.6093 6.05645 3.4928 
0.0105 0.001125 1.9639 2.97178e+21 1.97624e-05 -0.262927 2.43797 5.89134 
0.0075 0.013125 0 0 0 0 0 0 
0.0105 0.013125 0 0 0 0 0 0 
0.0135 0.013125 0 0 0 0 0 0 
0.0165 0.013125 0 0 0 0 0 0 
0.0195 0.022125 0 0 0 0 0 0 
0.0225 0.022125 0 0 0 0 0 0 
0.00375 0.0001875 1.91853 7.11642e+21 4.73242e-05 25.7817 -0.223681 0.616274 
0.00525 0.0001875 1.85807 5.28159e+21 3.51225e-05 37.0994 -0.147177 4.40015 
0.00675 0.0001875 1.90133 3.60657e+21 2.39837e-05 51.5977 2.81877 0.0149316 
0.00825 0.0001875 2.07108 3.19913e+21 2.12742e-05 21.375 -10.3447 -0.258463 
0.00675 0.0005625 1.73724 3.89831e+21 2.59238e-05 43.0256 0.446638 -0.513948 
0.00825 0.0005625 1.98594 2.98284e+21 1.98359e-05 26.4908 3.76684 0.0985756 
0.00675 0.0009375 1.86708 3.53112e+21 2.34819e-05 39.0444 8.17303 -0.147817 
0.00825 0.0009375 2.08572 2.86715e+21 1.90665e-05 16.5077 11.1002 -4.38407 
0.01125 0.0061875 0 0 0 0 0 0 
0.01125 0.0065625 0 0 0 0 0 0 
0.01125 0.0076875 0 0 0 0 0 0 
0.01125 0.0080625 0 0 0 0 0 0 
0.01125 0.0091875 0 0 0 0 0 0 
0.0255 0.000375 2.06971 1.64484e+21 1.09382e-05 2.20381 1.27239 -0.435976 
0.0285 0.000375 2.03717 1.69199e+21 1.12518e-05 -1.72469 2.40555 1.4882 
0.0195 0.000375 1.97609 1.66747e+21 1.10887e-05 1.16007 3.5869 -1.50075 
0.0225 0.000375 2.06581 1.66936e+21 1.11012e-05 2.28378 0.860104 -2.14075 
0.02775 0.0016875 1.95042 1.6331e+21 1.08601e-05 -2.39465 -3.49042 -2.43334 
0.01575 0.0016875 1.99855 1.59286e+21 1.05925e-05 2.58064 2.45686 2.12441 
0.01725 0.0016875 1.89205 1.57945e+21 1.05033e-05 0.765773 -2.30975 0.585236 
0.01575 0.0020625 2.04731 1.65444e+21 1.1002e-05 2.14843 0.358349 -2.25124 
0.003375 0.00084375 1.98538 8.22463e+21 5.46938e-05 16.3601 -10.125 1.17563 
0.004125 0.00084375 2.04366 7.40428e+21 4.92385e-05 26.8081 1.18177 -4.03852 
0.003375 0.00103125 2.0354 8.02888e+21 5.3392e-05 21.0703 -7.24522 0.794261 
0.004125 0.00103125 2.02162 7.08967e+21 4.71463e-05 25.8548 0.639742 -1.05619 
0.003375 0.00121875 1.91351 8.96862e+21 5.96413e-05 24.2897 -4.24829 -3.18883 
0.004125 0.00121875 2.00227 7.19689e+21 4.78593e-05 22.7399 3.45072 2.90851 
0.003375 0.00140625 2.0282 8.66233e+21 5.76045e-05 20.2137 0.330282 5.98407 
0.005625 0.00121875 1.98123 5.60893e+21 3.72994e-05 31.6958 1.80607 0.243226 
0.004875 0.00140625 2.00976 6.47875e+21 4.30837e-05 19.3155 2.10979 1.81881 
0.005625 0.00140625 1.94783 5.31177e+21 3.53232e-05 25.7037 0.87176 3.45795 
0.027375 0.00609375 2.1124 1.64553e+21 1.09428e-05 2.4513 -5.21769 2.74122 
0.028125 0.00609375 1.97371 1.65111e+21 1.09798e-05 -0.0688997 1.79691 -4.4414 
0.025875 0.00703125 1.98267 1.66113e+21 1.10465e-05 -2.18477 2.10671 2.23471 
0.026625 0.00703125 2.02954 1.66274e+21 1.10572e-05 -0.668636 -4.0673 0.884591 
0.024375 0.00796875 1.97723 1.61483e+21 1.07386e-05 3.21136 -0.0655995 -2.74269 
0.026625 0.00815625 2.03591 1.65403e+21 1.09993e-05 1.59877 -3.9007 1.83488 
0.027375 0.00759375 2.06236 1.67669e+21 1.115e-05 0.787742 -3.79372 1.9423 
0.024375 0.0216562 2.04541 1.60224e+21 1.06549e-05 0.684063 -3.82658 3.80225 
0.025125 0.0216562 2.03832 1.73815e+21 1.15587e-05 3.91977 0.562574 0.871506 
0.025875 0.0216562 2.01416 1.6094e+21 1.07025e-05 -0.510929 -0.214372 -2.75064 
0.026625 0.0216562 1.97057 1.57721e+21 1.04884e-05 4.37661 7.69751 -4.45581 
0.027375 0.0216562 1.99451 1.63801e+21 1.08927e-05 -0.140893 1.34072 1.60179 
0.028125 0.0216562 2.02963 1.59867e+21 1.06311e-05 0.0348402 -2.60636 -2.44324 
0.028875 0.0216562 1.95188 1.60582e+21 1.06787e-05 -1.60335 1.58711 1.92934 
0.029625 0.0216562 2.0353 1.58078e+21 1.05122e-05 -0.148011 2.77615 0.0410311 
0.007875 0.00309375 1.95197 2.34859e+21 1.56181e-05 -1.71913 13.2629 -0.121583 
0.008625 0.00309375 1.82525 2.173e+21 1.44504e-05 3.92888 12.7815 -1.02962 
0.007875 0.00328125 1.90636 2.19369e+21 1.4588e-05 1.8452 9.0525 -0.425228 
0.008625 0.00328125 2.0456 2.20404e+21 1.46569e-05 -1.70465 5.58958 -2.34287 
0.007875 0.00384375 2.03655 2.25838e+21 1.50183e-05 -2.66859 11.2301 -1.58774 
0.008625 0.00384375 2.03166 2.23483e+21 1.48616e-05 1.93786 12.9839 -1.83551 
0.008625 0.00403125 1.96286 2.27126e+21 1.51039e-05 0.2872 10.974 0.0970169 
0.007875 0.00421875 2.05727 2.31786e+21 1.54138e-05 -0.126032 7.02648 2.67112 
0.008625 0.00421875 2.01964 2.1408e+21 1.42363e-05 0.636298 9.66525 2.56913 
0.007875 0.00440625 2.05101 2.23978e+21 1.48945e-05 3.67154 6.57291 0.510157 
0.008625 0.00440625 1.97393 2.01631e+21 1.34085e-05 2.5876 9.87111 2.53392 
0.006375 0.00459375 1.92199 2.17115e+21 1.44381e-05 3.52025 4.14066 -3.02034 
0.006375 0.00478125 1.9399 2.30792e+21 1.53477e-05 0.358178 1.12824 -3.46352 
0.007125 0.00478125 2.00299 2.21087e+21 1.47023e-05 2.46003 6.28587 -0.521733 
0.006375 0.00496875 1.93203 2.16531e+21 1.43993e-05 2.64406 7.12916 4.5992 
0.006375 0.00515625 1.92192 2.07011e+21 1.37662e-05 -0.640525 3.4704 -0.295347 
0.007125 0.00515625 1.91797 2.14885e+21 1.42899e-05 -1.10509 8.6474 -0.628097 
0.007875 0.00534375 2.04162 2.09675e+21 1.39434e-05 1.58257 7.40728 -2.86802 
0.008625 0.00534375 1.95599 2.08192e+21 1.38448e-05 0.743772 7.88365 0.0824107 
0.006375 0.00721875 1.94679 2.05776e+21 1.36841e-05 1.25053 3.18103 -5.08102 
0.006375 0.00740625 1.89601 1.96555e+21 1.30709e-05 -3.62836 1.23407 0.25795 
0.006375 0.00759375 1.81651 1.98129e+21 1.31756e-05 -2.66832 5.39715 -0.145939 
0.006375 0.00778125 1.94916 1.86265e+21 1.23866e-05 4.82626 4.2151 1.70656 
0.006375 0.00909375 1.93861 1.95318e+21 1.29886e-05 -0.548117 2.5478 -1.1797 
0.006375 0.00928125 2.05033 1.88399e+21 1.25286e-05 0.916914 0.902542 -0.942287 
0.006375 0.00984375 2.05381 1.91431e+21 1.27301e-05 2.4275 2.57344 -1.86675 
0.006375 0.0100312 1.91001 1.92718e+21 1.28157e-05 -0.66276 2.87278 -3.82018 
0.006375 0.0105937 2.03227 1.89496e+21 1.26015e-05 0.552857 1.82156 -1.01268 
0.006375 0.0107812 1.97605 1.8935e+21 1.25918e-05 1.28724 4.40653 -2.41691 
0.006375 0.0109687 1.97974 1.9598e+21 1.30327e-05 -1.01711 2.42206 -2.86586 
0.006375 0.0113437 1.97308 1.92494e+21 1.28009e-05 3.08832 1.74645 -2.04225 
0.006375 0.0115312 2.11696 1.901e+21 1.26417e-05 2.24793 3.77364 2.14158 
0.006375 0.0122813 1.98495 1.93005e+21 1.28349e-05 -0.148928 0.887032 1.18064 
0.006375 0.0126563 1.99799 1.87398e+21 1.2462e-05 -1.90171 0.860004 -2.45787 
0.015375 0.00684375 2.02334 1.68515e+21 1.12062e-05 2.38175 0.958914 -0.341802 
0.016125 0.00684375 1.9482 1.5975e+21 1.06234e-05 1.07672 -1.04218 -1.15693 
0.015375 0.00703125 1.9974 1.6048e+21 1.06719e-05 -1.17524 0.0679322 3.69041 
0.016125 0.00703125 2.04707 1.71103e+21 1.13784e-05 2.64756 -4.31495 1.40207 
0.012375 0.00946875 1.94137 1.70627e+21 1.13467e-05 -0.139889 2.42808 1.55379 
0.018375 0.00609375 2.01577 1.70311e+21 1.13257e-05 2.56573 -0.873197 -2.05031 
0.019125 0.00609375 2.00943 1.60282e+21 1.06587e-05 4.19095 1.7385 -0.897952 
0.018375 0.00628125 2.04213 1.65407e+21 1.09996e-05 2.97439 -1.14692 -0.654408 
0.019125 0.00628125 2.03573 1.64146e+21 1.09157e-05 1.17486 0.106165 -0.0393516 
0.022875 0.00721875 1.98364 1.63837e+21 1.08952e-05 3.59032 -0.0494804 2.48347 
0.023625 0.00721875 2.0517 1.58036e+21 1.05094e-05 3.88755 2.59145 1.22194 
0.018375 0.0173437 0 0 0 0 0 0 
0.018375 0.0175312 0 0 0 0 0 0 
0.021375 0.0216562 1.90865 1.59509e+21 1.06073e-05 -1.9322 4.73727 -0.89705 
0.022125 0.0216562 1.97681 1.70954e+21 1.13684e-05 -0.733391 0.6092 2.21373 
0.0135 0.000375 1.99066 1.5894e+21 1.05695e-05 -3.36287 -1.17111 1.77273 
0.0165 0.000375 1.99134 1.62597e+21 1.08127e-05 2.42458 -4.24047 2.07008 
0.01125 0.0069375 0 0 0 0 0 0 
0.01125 0.0073125 0 0 0 0 0 0 
0.01875 0.0020625 2.00017 1.72303e+21 1.14582e-05 3.99123 -4.21058 2.03556 
0.02325 0.0016875 2.005 1.66831e+21 1.10943e-05 1.01007 2.18054 1.79001 
0.004875 0.00084375 1.86128 5.98244e+21 3.97833e-05 34.032 -7.88497 2.06191 
0.005625 0.00084375 2.02727 5.70076e+21 3.79101e-05 42.1746 4.11053 0.833546 
0.004875 0.00103125 2.01835 6.40924e+21 4.26214e-05 29.5004 -1.44252 4.82123 
0.005625 0.00103125 1.80913 5.31177e+21 3.53232e-05 36.4815 3.05944 2.60414 
0.028875 0.00534375 1.99342 1.65622e+21 1.10139e-05 1.22286 1.34244 -3.63611 
0.029625 0.00534375 2.01 1.58633e+21 1.05491e-05 0.670177 2.02552 -0.523705 
0.029625 0.00553125 1.96241 1.70443e+21 1.13345e-05 -4.02463 -0.55963 6.23895 
0.025875 0.00646875 2.00485 1.65162e+21 1.09832e-05 -0.95984 2.25585 -2.76403 
0.026625 0.00646875 2.11079 1.69711e+21 1.12858e-05 4.69199 0.862648 3.74667 
0.025875 0.00665625 2.20499 1.71901e+21 1.14314e-05 2.70992 1.78431 1.97269 
0.026625 0.00665625 1.87894 1.6272e+21 1.08209e-05 4.89952 0.945592 4.00263 
0.024375 0.00721875 1.98173 1.6854e+21 1.12079e-05 0.0674921 0.761007 -0.262337 
0.025125 0.00721875 2.0082 1.6321e+21 1.08535e-05 2.11504 0.2678 0.103098 
0.025875 0.00721875 1.95336 1.73871e+21 1.15624e-05 2.09635 1.56847 0.0791377 
0.026625 0.00740625 1.97529 1.69928e+21 1.13002e-05 -0.156009 1.15235 1.22537 
0.028875 0.00684375 1.99238 1.68019e+21 1.11732e-05 0.944786 1.01828 2.4856 
0.025875 0.00778125 2.00978 1.62611e+21 1.08136e-05 1.19587 -2.18755 -4.57531 
0.026625 0.00778125 2.01255 1.66102e+21 1.10458e-05 -0.612146 -2.19027 -0.405711 
0.007875 0.00234375 2.00228 2.38064e+21 1.58312e-05 0.720112 9.94552 3.0331 
0.008625 0.00234375 2.15427 2.35166e+21 1.56386e-05 -4.24248 11.4838 -3.93092 
0.007875 0.00253125 2.12719 2.07016e+21 1.37666e-05 6.8612 11.577 1.08266 
0.008625 0.00253125 1.91513 2.44574e+21 1.62642e-05 -1.49699 14.2823 4.44371 
0.006375 0.00421875 1.94113 2.06736e+21 1.3748e-05 0.481982 7.23597 -2.44624 
0.007125 0.00421875 1.97223 2.19177e+21 1.45753e-05 0.0744508 7.29284 -0.554585 
0.006375 0.00440625 1.87374 2.2539e+21 1.49885e-05 0.444785 3.4887 3.64312 
0.007125 0.00440625 2.03415 2.12933e+21 1.416e-05 -3.79429 5.4354 0.0371825 
0.007875 0.00496875 1.98577 2.05911e+21 1.36931e-05 -1.46243 5.28951 -1.34695 
0.006375 0.00571875 2.10235 1.74775e+21 1.16225e-05 -1.74812 5.11683 -1.15226 
0.007125 0.00571875 1.99025 2.07602e+21 1.38055e-05 2.20444 11.0014 -0.526358 
0.006375 0.00590625 2.05303 1.99407e+21 1.32606e-05 0.556291 3.2329 -1.07681 
0.008625 0.00571875 1.93444 2.06613e+21 1.37397e-05 -3.02819 6.94997 0.920705 
0.006375 0.00609375 2.12703 1.99888e+21 1.32925e-05 1.95863 7.1034 -1.01118 
0.006375 0.00628125 2.11615 1.97299e+21 1.31204e-05 0.606799 5.62991 -1.23221 
0.006375 0.00646875 1.89055 2.06343e+21 1.37218e-05 0.984732 0.404569 4.45925 
0.006375 0.00684375 2.03891 2.0868e+21 1.38772e-05 0.260114 1.11096 -4.1136 
0.006375 0.00703125 1.96798 2.07642e+21 1.38082e-05 -0.163653 2.11266 -1.1004 
0.006375 0.00796875 2.02175 2.01854e+21 1.34233e-05 -0.414103 4.99934 -3.04968 
0.006375 0.00815625 2.00435 1.97474e+21 1.3132e-05 1.97036 -2.59729 -0.142263 
0.006375 0.00834375 2.02298 1.93799e+21 1.28877e-05 -0.103338 2.08394 -3.44437 
0.006375 0.00853125 1.98564 1.96505e+21 1.30676e-05 -3.36587 2.64839 0.987741 
0.006375 0.00871875 1.98097 1.9666e+21 1.30779e-05 -1.42864 3.84377 1.22107 
0.006375 0.00890625 1.98336 1.84419e+21 1.22638e-05 1.65667 2.14619 -1.13807 
0.010125 0.00946875 2.12256 1.64155e+21 1.09163e-05 -4.86749 -1.76485 1.51827 
0.010875 0.00946875 1.9879 1.96986e+21 1.30996e-05 1.70845 -5.11204 -1.06143 
0.011625 0.00946875 2.00567 1.75783e+21 1.16895e-05 -6.32129 -9.05407 8.74819 
0.006375 0.0102187 2.06248 1.86275e+21 1.23873e-05 -4.10229 3.74538 0.299542 
0.006375 0.0104062 2.06259 2.01067e+21 1.3371e-05 3.96473 1.89926 -4.42771 
0.015375 0.00609375 2.03555 1.61953e+21 1.07699e-05 4.15809 -2.81565 -0.871398 
0.016125 0.00609375 2.00877 1.78669e+21 1.18815e-05 -1.53097 0.119543 -1.1492 
0.015375 0.00628125 1.89469 1.5802e+21 1.05083e-05 1.67224 -0.0886382 -1.97418 
0.017625 0.00609375 2.00248 1.61767e+21 1.07575e-05 1.46877 -0.94061 3.07958 
0.016875 0.00628125 2.05928 1.74236e+21 1.15867e-05 2.90302 0.28417 1.58176 
0.017625 0.00628125 2.07064 1.72074e+21 1.14429e-05 0.137784 1.55203 0.229711 
0.015375 0.00759375 1.98833 1.68564e+21 1.12095e-05 -0.575708 -0.308815 -1.40043 
0.016125 0.00778125 2.03041 1.80356e+21 1.19937e-05 -1.1819 -1.08826 -3.15289 
0.017625 0.00759375 1.98953 1.66924e+21 1.11005e-05 1.71458 -2.06836 -0.776497 
0.018375 0.00534375 1.96257 1.61598e+21 1.07463e-05 -0.152667 3.00523 -8.10469 
0.019125 0.00534375 2.00696 1.73882e+21 1.15632e-05 -1.38813 -1.51694 -7.54159 
0.018375 0.00553125 1.95386 1.64305e+21 1.09263e-05 1.085 -3.49247 -4.73647 
0.019125 0.00553125 2.05171 1.66146e+21 1.10487e-05 0.318238 -2.87226 -0.749881 
0.022875 0.00646875 2.03441 1.74609e+21 1.16115e-05 2.21929 -1.74283 2.11703 
0.022875 0.00665625 2.03747 1.73092e+21 1.15106e-05 1.28516 4.3068 3.3675 
0.023625 0.00665625 2.0285 1.55918e+21 1.03686e-05 3.78062 -0.163353 0.102355 
0.019875 0.00721875 2.02951 1.71206e+21 1.13852e-05 0.901787 0.257954 1.06622 
0.020625 0.00721875 1.98203 1.74812e+21 1.1625e-05 4.51707 -2.93864 -0.158643 
0.020625 0.00740625 1.99036 1.65496e+21 1.10055e-05 6.82251 -2.53829 1.08803 
0.021375 0.00684375 1.97857 1.56773e+21 1.04254e-05 -0.227446 -0.365559 -0.454154 
0.022125 0.00684375 1.98924 1.63884e+21 1.08983e-05 2.49179 0.909983 -1.18263 
0.021375 0.00703125 2.05997 1.56295e+21 1.03936e-05 2.11796 0.211214 -1.18242 
0.021375 0.00740625 2.01225 1.63815e+21 1.08937e-05 1.9982 -1.04698 0.742114 
0.019875 0.00778125 1.9693 1.65811e+21 1.10264e-05 3.08401 0.0250151 -0.889819 
0.022125 0.00778125 1.98951 1.61447e+21 1.07363e-05 2.28321 -3.26221 -1.27972 
0.018375 0.0210937 0 0 0 0 0 0 
0.018375 0.0212812 0 0 0 0 0 0 
0.019875 0.0216562 1.9091 1.64516e+21 1.09403e-05 6.11966 -2.84208 3.53194 
0.020625 0.0216562 1.99251 1.63801e+21 1.08927e-05 3.71844 0.590872 -3.93469 
0.022875 0.0216562 2.04708 1.78106e+21 1.18441e-05 -0.993398 -3.88798 4.66285 
0.023625 0.0216562 2.00131 1.72742e+21 1.14873e-05 -5.58284 4.55165 0.527846 
0.0264375 0.0159844 2.0585 1.66249e+21 1.10556e-05 0.175645 -1.28601 -1.63444 
0.0268125 0.0159844 1.97904 1.61435e+21 1.07354e-05 -7.16709 -0.492639 1.46057 
0.0264375 0.0160781 2.0075 1.76543e+21 1.17401e-05 0.838875 -1.80998 -3.48805 
0.0268125 0.0160781 2.01347 1.65562e+21 1.10098e-05 -3.14225 -0.386401 -2.22202 
0.0279375 0.0163594 2.05363 1.65206e+21 1.09862e-05 -0.921217 -0.279209 -0.0579861 
0.0283125 0.0163594 2.03816 1.72124e+21 1.14462e-05 -1.14426 3.29027 5.6561 
0.0279375 0.0164531 2.05706 1.7527e+21 1.16555e-05 2.60798 2.66398 -0.660241 
0.0283125 0.0164531 1.96374 1.66466e+21 1.107e-05 2.54985 -0.850977 -1.49644 
0.0286875 0.0167344 1.8942 1.56093e+21 1.03802e-05 -4.14322 -1.3553 3.1234 
0.0290625 0.0167344 1.99808 1.68267e+21 1.11897e-05 -4.49729 -0.219849 -2.00236 
0.0286875 0.0168281 2.06106 1.65984e+21 1.1038e-05 3.56228 1.07297 0.871057 
0.0290625 0.0168281 1.99321 1.53878e+21 1.02329e-05 2.92017 2.31272 -2.3953 
0.0271875 0.0195469 2.07488 1.54478e+21 1.02728e-05 -1.56209 -5.29718 -4.98626 
0.0275625 0.0195469 1.88407 1.73006e+21 1.15049e-05 0.42114 -1.72138 0.587988 
0.0271875 0.0196406 1.98665 1.6273e+21 1.08215e-05 -3.39732 -0.639966 -2.58546 
0.0275625 0.0196406 1.9759 1.50974e+21 1.00398e-05 -3.41447 0.492362 0.30631 
0.0271875 0.0204844 2.01655 1.57574e+21 1.04787e-05 -1.92413 -1.51745 -0.0119542 
0.0275625 0.0204844 2.01733 1.71276e+21 1.13899e-05 1.37367 -0.052956 3.52237 
0.0271875 0.0205781 2.09128 1.68736e+21 1.12209e-05 -1.64276 -1.22443 -1.29266 
0.0275625 0.0205781 2.02088 1.67636e+21 1.11478e-05 -2.08653 2.30998 -0.69037 
0.0286875 0.0202969 2.00672 1.6929e+21 1.12578e-05 3.44225 -1.07304 3.31749 
0.0290625 0.0202969 2.02035 1.5613e+21 1.03826e-05 -0.194103 4.17686 -3.81614 
0.0286875 0.0203906 1.96491 1.63627e+21 1.08812e-05 -1.5723 -3.71288 3.14563 
0.0290625 0.0203906 2.01418 1.64071e+21 1.09107e-05 -3.18356 2.67193 -0.135756 
0.0294375 0.0202969 2.01824 1.71297e+21 1.13912e-05 2.48306 -3.09276 0.35726 
0.0298125 0.0202969 1.95131 1.64829e+21 1.09611e-05 -1.96817 -3.2438 1.29249 
0.0294375 0.0203906 2.08141 1.63627e+21 1.08812e-05 -1.19975 2.31175 0.571204 
0.0298125 0.0203906 1.9967 1.5297e+21 1.01725e-05 -1.45698 -1.84991 -5.27512 
0.0294375 0.0206719 1.97977 1.75635e+21 1.16798e-05 0.795514 -0.433591 2.66343 
0.0294375 0.0207656 1.96792 1.6852e+21 1.12066e-05 1.66567 2.37031 -2.03737 
0.0298125 0.0207656 2.0539 1.67212e+21 1.11196e-05 0.971037 -1.47022 0.944004 
0.0249375 0.0212344 2.17474 1.65013e+21 1.09734e-05 0.981805 -2.11835 0.846842 
0.0253125 0.0212344 1.96552 1.64161e+21 1.09167e-05 0.451614 0.548231 4.26906 
0.0249375 0.0213281 2.02554 1.67896e+21 1.11651e-05 2.56168 -0.12993 1.63679 
0.0253125 0.0213281 2.00887 1.58982e+21 1.05723e-05 -4.49361 0.00658422 2.35332 
0.0196875 0.0199219 1.98824 1.68613e+21 1.12128e-05 -3.98897 -4.02592 0.441262 
0.0200625 0.0199219 2.11878 1.66795e+21 1.10919e-05 2.8105 2.22309 -0.391195 
0.0196875 0.0200156 2.025 1.62621e+21 1.08143e-05 2.84677 2.34655 -1.70902 
0.0200625 0.0200156 1.98317 1.57193e+21 1.04533e-05 -2.65705 2.51834 -1.88127 
0.0211875 0.0199219 1.97581 1.70431e+21 1.13337e-05 3.72436 1.25265 -1.4028 
0.0215625 0.0199219 2.06225 1.7793e+21 1.18323e-05 -3.33378 2.10832 -5.25343 
0.0211875 0.0200156 2.12355 1.67823e+21 1.11603e-05 0.0741896 -0.905304 -1.12981 
0.0215625 0.0200156 1.91435 1.70311e+21 1.13257e-05 1.37451 -0.88519 2.23982 
0.0204375 0.0204844 1.92164 1.69508e+21 1.12723e-05 4.56218 0.0373621 3.15893 
0.0208125 0.0204844 1.96189 1.69729e+21 1.1287e-05 1.99946 1.19554 2.25246 
0.0204375 0.0205781 2.05607 1.58176e+21 1.05187e-05 -1.20913 3.81509 -4.65169 
0.0204375 0.0212344 1.94666 1.67572e+21 1.11435e-05 -2.20445 0.761697 1.06041 
0.0208125 0.0212344 2.03857 1.65866e+21 1.10301e-05 -2.35439 0.723429 -1.24193 
0.0204375 0.0213281 1.88741 1.58769e+21 1.05582e-05 1.3427 -2.8668 1.59192 
0.0208125 0.0213281 2.08779 1.63227e+21 1.08546e-05 -0.589787 -1.70084 -0.195008 
0.01125 0.0046875 0 0 0 0 0 0 
0.01125 0.0050625 0 0 0 0 0 0 
0.01125 0.0084375 0 0 0 0 0 0 
0.01125 0.0088125 0 0 0 0 0 0 
0.01275 0.0024375 2.07969 1.54965e+21 1.03052e-05 -0.837134 -1.34321 1.14563 
0.01275 0.0028125 2.10381 1.67502e+21 1.11389e-05 -4.43611 4.77652 1.34321 
0.003375 0.00046875 1.96654 7.56101e+21 5.02807e-05 23.384 -1.61821 -4.39289 
0.004125 0.00046875 2.08923 7.70206e+21 5.12187e-05 28.9677 5.65038 2.08368 
0.003375 0.00065625 2.04555 7.91954e+21 5.2665e-05 26.3242 0.217777 -0.0839368 
0.004125 0.00065625 1.99567 7.36404e+21 4.89709e-05 26.6657 0.932007 -2.35832 
0.027375 0.00496875 2.02194 1.71061e+21 1.13755e-05 -1.1878 -1.70232 3.91383 
0.028125 0.00496875 1.9685 1.69239e+21 1.12544e-05 4.69091 -2.102 1.83015 
0.027375 0.00515625 1.99907 1.66816e+21 1.10933e-05 1.04219 -0.797111 -1.45501 
0.028125 0.00515625 1.92043 1.70986e+21 1.13706e-05 1.11338 0.398567 -1.05037 
0.025875 0.00571875 2.02812 1.60897e+21 1.06996e-05 3.56973 2.77424 3.63012 
0.026625 0.00571875 2.01213 1.68813e+21 1.12261e-05 -0.231739 0.562685 -0.883782 
0.025875 0.00590625 2.03894 1.5713e+21 1.04492e-05 2.50176 6.03193 -1.77723 
0.027375 0.00534375 1.94707 1.67952e+21 1.11688e-05 1.90095 -1.18543 -0.0999611 
0.028125 0.00534375 2.09767 1.60327e+21 1.06618e-05 -1.04316 -2.05657 -0.597988 
0.027375 0.00553125 1.95591 1.53051e+21 1.01779e-05 1.86763 -1.0104 0.717748 
0.028125 0.00553125 2.06274 1.65737e+21 1.10215e-05 0.289958 -1.60745 0.527069 
0.027375 0.00571875 1.98928 1.57928e+21 1.05022e-05 2.12572 0.641805 4.03147 
0.028125 0.00571875 1.95499 1.69209e+21 1.12524e-05 0.440832 -1.27032 1.3738 
0.027375 0.00590625 1.9909 1.68053e+21 1.11755e-05 0.134565 0.625439 -2.76499 
0.028125 0.00590625 1.9624 1.58472e+21 1.05384e-05 2.56865 3.51179 -1.24072 
0.028875 0.00571875 2.00723 1.58918e+21 1.0568e-05 -1.32292 -3.8566 0.486613 
0.029625 0.00571875 1.97601 1.72969e+21 1.15024e-05 -0.52966 -1.85872 2.27512 
0.028875 0.00590625 1.91326 1.62687e+21 1.08187e-05 1.66067 1.15111 0.483454 
0.029625 0.00590625 1.97653 1.61346e+21 1.07295e-05 2.68798 2.54981 -1.41873 
0.024375 0.00609375 2.01564 1.63068e+21 1.0844e-05 -0.405363 -0.156653 -0.378717 
0.025125 0.00609375 1.94143 1.70125e+21 1.13133e-05 0.68207 -0.42514 4.43936 
0.024375 0.00628125 1.97972 1.70452e+21 1.13351e-05 3.58157 -2.92166 -3.5629 
0.024375 0.00646875 2.05722 1.63237e+21 1.08553e-05 -1.16372 -3.40191 0.776839 
0.025125 0.00646875 1.98662 1.64112e+21 1.09134e-05 3.52644 -0.634549 -0.0368228 
0.024375 0.00665625 2.02297 1.6527e+21 1.09905e-05 2.63498 -0.837792 1.83657 
0.025125 0.00665625 1.99668 1.6374e+21 1.08887e-05 0.627742 1.05984 -2.58601 
0.028875 0.00609375 2.01835 1.62696e+21 1.08193e-05 2.59793 4.01441 0.671937 
0.029625 0.00609375 1.96643 1.67339e+21 1.11281e-05 2.19119 0.848229 4.13646 
0.028875 0.00628125 2.00019 1.63245e+21 1.08558e-05 -1.05725 3.77809 -1.79892 
0.029625 0.00628125 1.95444 1.67209e+21 1.11194e-05 -1.48058 -2.29949 1.21795 
0.028875 0.00646875 2.0377 1.5064e+21 1.00176e-05 -0.674773 -1.68542 1.61508 
0.029625 0.00646875 2.088 1.69361e+21 1.12625e-05 -2.68813 2.68149 0.503722 
0.028875 0.00665625 2.05441 1.69011e+21 1.12392e-05 2.82062 -2.9275 -0.504166 
0.029625 0.00665625 1.97283 1.6408e+21 1.09113e-05 2.9554 -3.28428 -0.125711 
0.027375 0.00684375 1.93976 1.71326e+21 1.13932e-05 -0.729575 2.1874 -2.3147 
0.028125 0.00684375 1.95929 1.79429e+21 1.1932e-05 -0.157341 1.36531 0.314361 
0.028125 0.00703125 2.02109 1.61446e+21 1.07361e-05 -2.1068 0.799401 -1.66233 
0.027375 0.00815625 1.9528 1.67207e+21 1.11193e-05 5.21791 0.117792 1.66943 
0.029625 0.00796875 1.98125 1.65744e+21 1.1022e-05 4.15415 0.400859 -0.353877 
0.026625 0.00834375 2.0493 1.63856e+21 1.08964e-05 1.24999 0.160719 -1.53824 
0.026625 0.00853125 1.96252 1.65562e+21 1.10098e-05 -1.17047 -1.59135 -1.07017 
0.007875 0.00346875 1.98485 2.19583e+21 1.46023e-05 2.27601 11.4137 3.76793 
0.008625 0.00346875 1.90944 2.24804e+21 1.49495e-05 -5.15362 12.8328 -1.08163 
0.007875 0.00365625 2.10739 2.22871e+21 1.48209e-05 0.372522 6.25621 0.728391 
0.008625 0.00365625 1.92747 2.23181e+21 1.48415e-05 -2.78222 9.35676 2.9728 
0.006375 0.00384375 1.91869 2.2801e+21 1.51627e-05 -1.56163 6.88893 -3.33967 
0.007125 0.00384375 1.90897 2.16122e+21 1.43721e-05 2.05795 6.27508 0.0552498 
0.006375 0.00403125 2.00081 2.17931e+21 1.44924e-05 0.806368 7.03521 -0.614526 
0.007125 0.00403125 2.02137 2.23476e+21 1.48612e-05 1.16811 2.68508 -5.07591 
0.007875 0.00459375 1.98431 2.13111e+21 1.41719e-05 0.11991 6.28531 3.39697 
0.008625 0.00459375 1.98445 2.25923e+21 1.50238e-05 -2.59353 8.32427 -2.53033 
0.007875 0.00478125 2.01029 1.98599e+21 1.32069e-05 3.70825 11.3863 0.785139 
0.008625 0.00478125 2.03922 1.92918e+21 1.28291e-05 0.427076 8.32531 0.280862 
0.006375 0.00534375 1.90678 2.10469e+21 1.39962e-05 3.00159 4.76327 -4.30352 
0.007125 0.00534375 1.93346 1.98662e+21 1.3211e-05 2.5503 6.69288 -1.24149 
0.006375 0.00553125 1.95502 1.9758e+21 1.31391e-05 -2.25997 3.42672 -1.2299 
0.007125 0.00553125 2.03926 2.04614e+21 1.36068e-05 0.590762 6.30305 -1.01028 
0.013875 0.00496875 1.97373 1.67416e+21 1.11332e-05 5.10697 0.121119 1.84465 
0.014625 0.00496875 2.0496 1.67416e+21 1.11332e-05 -0.831358 -3.99017 -1.53072 
0.013875 0.00515625 1.90783 1.62206e+21 1.07867e-05 1.11098 0.502233 -1.69405 
0.013875 0.00609375 2.07578 1.60653e+21 1.06834e-05 1.92606 0.508372 -1.60805 
0.014625 0.00609375 2.04123 1.69939e+21 1.1301e-05 1.21721 -0.127374 -1.64659 
0.013875 0.00628125 1.99101 1.72614e+21 1.14789e-05 -1.48887 1.4871 1.35763 
0.014625 0.00628125 1.98335 1.75858e+21 1.16945e-05 1.02448 -4.19828 0.119155 
0.013875 0.00646875 1.88588 1.56939e+21 1.04364e-05 -1.32286 -0.862869 0.466725 
0.013875 0.00665625 1.95782 1.61019e+21 1.07078e-05 1.35676 0.141979 -3.39435 
0.014625 0.00665625 2.0721 1.61529e+21 1.07417e-05 -1.238 -2.73726 -3.03586 
0.016125 0.00646875 1.99556 1.67961e+21 1.11694e-05 -2.00098 -3.08553 0.135846 
0.015375 0.00665625 2.02878 1.6238e+21 1.07982e-05 0.497411 -1.92844 -1.55365 
0.014625 0.00684375 1.93003 1.73972e+21 1.15691e-05 2.1591 -3.94498 -3.29391 
0.014625 0.00703125 1.93976 1.67562e+21 1.11429e-05 0.899341 0.97503 -0.989834 
0.014625 0.00721875 2.03319 1.54744e+21 1.02905e-05 -2.72473 -1.99945 -1.88768 
0.013875 0.00740625 1.99763 1.6626e+21 1.10563e-05 0.618899 -1.81964 -1.20039 
0.014625 0.00740625 1.96665 1.7222e+21 1.14526e-05 2.66055 -1.22845 -0.0738806 
0.017625 0.00684375 1.95944 1.59915e+21 1.06344e-05 3.19034 -2.34911 3.00976 
0.016875 0.00703125 1.92091 1.69494e+21 1.12713e-05 1.87976 0.714021 -0.349845 
0.017625 0.00703125 2.04747 1.63377e+21 1.08646e-05 2.58055 -2.70507 -0.088492 
0.015375 0.00721875 1.97742 1.6321e+21 1.08535e-05 -1.31355 1.28412 -0.732273 
0.016125 0.00721875 2.01996 1.67129e+21 1.11141e-05 2.97102 -2.98128 1.61907 
0.016875 0.00721875 1.92311 1.68384e+21 1.11975e-05 0.359219 -1.85054 0.287032 
0.017625 0.00721875 2.05027 1.66973e+21 1.11037e-05 -0.258634 -3.30755 -0.821228 
0.012375 0.00871875 1.84956 1.8303e+21 1.21715e-05 1.24435 -5.10863 7.61759 
0.012375 0.00890625 2.16686 1.48679e+21 9.88713e-06 -5.25827 -6.89422 9.13318 
0.019875 0.00496875 2.10959 1.64911e+21 1.09666e-05 1.46935 1.71968 1.76832 
0.020625 0.00496875 1.99686 1.58761e+21 1.05576e-05 3.39417 -0.383182 0.0716022 
0.020625 0.00515625 1.97144 1.64621e+21 1.09473e-05 8.12999 -1.37135 0.36849 
0.019875 0.00534375 1.99765 1.66893e+21 1.10984e-05 4.71305 -1.98062 -1.99714 
0.020625 0.00534375 2.04346 1.57786e+21 1.04928e-05 -0.802576 -0.0511093 0.402764 
0.019875 0.00553125 2.02694 1.6676e+21 1.10895e-05 -2.01541 2.63401 -2.0184 
0.020625 0.00553125 1.98379 1.7208e+21 1.14433e-05 -1.23578 -1.29048 -0.047209 
0.021375 0.00534375 2.09402 1.53338e+21 1.0197e-05 2.29969 -1.93889 1.80929 
0.022125 0.00534375 2.03254 1.61386e+21 1.07322e-05 3.16653 3.87352 -0.730865 
0.021375 0.00553125 1.9859 1.64714e+21 1.09535e-05 5.41015 0.443482 1.75672 
0.022125 0.00553125 1.90039 1.73103e+21 1.15114e-05 1.70407 1.5115 1.55823 
0.018375 0.00646875 2.0772 1.60438e+21 1.06691e-05 2.16044 -0.187728 -1.85976 
0.019125 0.00646875 1.96054 1.70061e+21 1.1309e-05 1.36728 -1.60349 2.64328 
0.018375 0.00665625 1.9182 1.68501e+21 1.12053e-05 1.59806 -2.69797 0.959955 
0.019125 0.00665625 1.99674 1.72751e+21 1.1488e-05 0.217547 2.55831 -5.34017 
0.019875 0.00646875 2.07713 1.62537e+21 1.08087e-05 1.42138 2.63675 1.28988 
0.020625 0.00646875 1.97026 1.56239e+21 1.03899e-05 3.76238 0.0193919 -2.43465 
0.019875 0.00665625 1.90109 1.59489e+21 1.0606e-05 0.40292 1.36797 0.642936 
0.020625 0.00665625 2.00053 1.74452e+21 1.1601e-05 2.5017 -1.30256 1.72881 
0.022875 0.00609375 1.98473 1.67153e+21 1.11157e-05 -0.231606 4.13422 0.933069 
0.023625 0.00609375 2.07477 1.64739e+21 1.09551e-05 1.60459 1.32839 1.38925 
0.023625 0.00628125 1.96577 1.66849e+21 1.10954e-05 0.500418 2.48849 0.778586 
0.019125 0.00684375 1.94252 1.73972e+21 1.15691e-05 0.961741 -1.3914 -0.509957 
0.019125 0.00703125 2.01743 1.74162e+21 1.15817e-05 0.731577 -0.186988 1.43513 
0.018375 0.00721875 2.04524 1.62269e+21 1.07909e-05 0.210818 -1.11261 0.00138152 
0.018375 0.00740625 1.99205 1.7008e+21 1.13103e-05 1.02951 -3.27277 -1.05198 
0.022875 0.00703125 1.95307 1.69333e+21 1.12606e-05 0.385652 1.6822 1.0016 
0.023625 0.00703125 1.97613 1.77864e+21 1.18279e-05 3.10234 0.807979 4.47827 
0.018375 0.00778125 2.06305 1.72792e+21 1.14907e-05 3.77543 -5.47783 2.29733 
0.018375 0.0195938 0 0 0 0 0 0 
0.018375 0.0197812 0 0 0 0 0 0 
0.018375 0.0203437 0 0 0 0 0 0 
0.018375 0.0205312 0 0 0 0 0 0 
0.024375 0.00384375 1.92977 1.69894e+21 1.1298e-05 3.21927 1.5419 -3.44985 
0.025125 0.00384375 1.87685 1.63122e+21 1.08476e-05 -2.23968 4.32995 2.06266 
0.024375 0.00403125 1.92984 1.66203e+21 1.10525e-05 3.606 -2.61521 1.11833 
0.025125 0.00403125 2.14722 1.80241e+21 1.1986e-05 4.80226 -2.15522 -4.36289 
0.0256875 0.0144844 2.03103 1.73777e+21 1.15562e-05 -1.40054 -4.9605 2.17259 
0.0260625 0.0144844 2.0614 1.56587e+21 1.0413e-05 3.54575 -0.812543 -0.239771 
0.0256875 0.0145781 2.05635 1.62722e+21 1.0821e-05 1.31058 1.15692 5.12434 
0.0260625 0.0145781 2.08276 1.68002e+21 1.11721e-05 3.20354 1.89502 -0.382447 
0.0256875 0.0159844 1.95644 1.66533e+21 1.10744e-05 0.245959 -2.53449 0.548775 
0.0260625 0.0159844 1.98794 1.67665e+21 1.11498e-05 0.725395 2.10192 -0.706872 
0.0256875 0.0160781 1.94843 1.56551e+21 1.04107e-05 0.754494 1.62923 -2.2611 
0.0260625 0.0160781 1.99994 1.64717e+21 1.09537e-05 -2.10119 6.44999 -2.40094 
0.0271875 0.0157969 1.93943 1.59625e+21 1.06151e-05 0.70489 3.24985 4.87494 