ITEM: TIMESTEP
500000
ITEM: NUMBER OF CELLS
43423
ITEM: BOX BOUNDS oo ao pp
0 0.35
0 0.03
-0.1 0.1
ITEM: CELLS xc yc f_out[1] f_out[2] f_out[3] f_out[4] f_out[5] f_out[6] 
0.00875 0.01575 0 0 0 0 0 0 
0.00875 0.01875 0 0 0 0 0 0 
0.00875 0.02175 0 0 0 0 0 0 
0.00875 0.02475 0 0 0 0 0 0 
0.00875 0.02775 0 0 0 0 0 0 
0.02625 0.02475 0 0 0 0 0 0 
0.02625 0.02775 0 0 0 0 0 0 
0.00875 0.01425 0 0 0 0 0 0 
0.00875 0.01725 0 0 0 0 0 0 
0.00875 0.02025 0 0 0 0 0 0 
0.00875 0.02325 0 0 0 0 0 0 
0.00875 0.02625 0 0 0 0 0 0 
0.00875 0.02925 0 0 0 0 0 0 
0.02625 0.02325 0 0 0 0 0 0 
0.02625 0.02625 0 0 0 0 0 0 
0.02625 0.02925 0 0 0 0 0 0 
0.04375 0.02325 0 0 0 0 0 0 
0.04375 0.02625 0 0 0 0 0 0 
0.04375 0.02925 0.00168585 6.21851e+15 4.13531e-11 -28.0509 7.08227 -0.033804 
0.004375 0.013125 0 0 0 0 0 0 
0.013125 0.013125 0 0 0 0 0 0 
0.021875 0.022125 0 0 0 0 0 0 
0.030625 0.022125 0 0 0 0 0 0 
0.0021875 0.0001875 1.9261 1.2994e+22 8.64103e-05 29.5769 2.65433 1.47457 
0.0021875 0.0031875 0 0 0 0 0 0 
0.0021875 0.0035625 0 0 0 0 0 0 
0.0021875 0.0039375 0 0 0 0 0 0 
0.0021875 0.0043125 0 0 0 0 0 0 
0.0021875 0.0061875 0 0 0 0 0 0 
0.0021875 0.0065625 0 0 0 0 0 0 
0.0021875 0.0069375 0 0 0 0 0 0 
0.0021875 0.0073125 0 0 0 0 0 0 
0.0021875 0.0091875 0 0 0 0 0 0 
0.0021875 0.0095625 0 0 0 0 0 0 
0.0021875 0.0099375 0 0 0 0 0 0 
0.0021875 0.0103125 0 0 0 0 0 0 
0.0021875 0.0121875 0 0 0 0 0 0 
0.0021875 0.0125625 0 0 0 0 0 0 
0.0021875 0.0020625 0 0 0 0 0 0 
0.0021875 0.0024375 0 0 0 0 0 0 
0.0021875 0.0028125 0 0 0 0 0 0 
0.0021875 0.0046875 0 0 0 0 0 0 
0.0021875 0.0050625 0 0 0 0 0 0 
0.0021875 0.0054375 0 0 0 0 0 0 
0.0021875 0.0058125 0 0 0 0 0 0 
0.0021875 0.0076875 0 0 0 0 0 0 
0.0021875 0.0080625 0 0 0 0 0 0 
0.0021875 0.0084375 0 0 0 0 0 0 
0.0021875 0.0088125 0 0 0 0 0 0 
0.0021875 0.0106875 0 0 0 0 0 0 
0.0021875 0.0110625 0 0 0 0 0 0 
0.0021875 0.0114375 0 0 0 0 0 0 
0.0021875 0.0118125 0 0 0 0 0 0 
0.0109375 0.0001875 2.0946 5.71688e+21 3.80173e-05 11.6424 3.71951 2.76688 
0.0109375 0.0001875 1.96022 2.39669e+21 1.5938e-05 -3.87882 5.01709 -13.4684 
0.0153125 0.0001875 1.9862 2.85076e+21 1.89576e-05 6.41337 1.49946 0.393884 
0.0109375 0.0005625 1.94661 5.75557e+21 3.82746e-05 10.8583 10.8545 -6.62724 
0.0109375 0.0005625 1.87501 2.43219e+21 1.61741e-05 -10.4835 -1.53352 -2.53502 
0.00546875 9.375e-05 1.72734 1.05132e+22 6.99125e-05 46.0039 -5.78141 -2.32264 
0.00765625 9.375e-05 1.9424 4.55294e+21 3.02771e-05 37.0131 6.89791 0.981868 
0.00546875 0.00028125 1.86633 9.97508e+21 6.63343e-05 47.2291 1.91865 0.561597 
0.00765625 0.00028125 1.78643 5.43594e+21 3.6149e-05 47.3316 3.38213 -2.93794 
0.00109375 0.00046875 0 0 0 0 0 0 
0.00328125 0.00046875 1.91883 1.30016e+22 8.64607e-05 27.8222 -2.4095 3.4992 
0.00109375 0.00065625 0 0 0 0 0 0 
0.00765625 0.00046875 1.95811 5.65393e+21 3.75986e-05 44.8963 4.1629 -1.40919 
0.00765625 0.00065625 1.90931 5.71187e+21 3.7984e-05 44.2899 6.92483 0.732488 
0.00109375 0.00084375 0 0 0 0 0 0 
0.00109375 0.00103125 0 0 0 0 0 0 
0.00109375 0.00121875 0 0 0 0 0 0 
0.00109375 0.00140625 0 0 0 0 0 0 
0.0142187 0.00121875 2.01337 2.36244e+21 1.57102e-05 5.35137 -1.78882 1.38469 
0.0164062 0.00121875 2.01665 2.61715e+21 1.7404e-05 3.99035 0.344826 0.843669 
0.0142187 0.00140625 1.98959 2.44203e+21 1.62395e-05 -2.17982 0.957997 -1.58784 
0.0164062 0.00140625 2.07435 2.58552e+21 1.71937e-05 0.432754 0.0131658 0.616794 
0.00546875 0.00309375 2.11405 3.65394e+21 2.42987e-05 -3.54096 10.159 -8.03108 
0.00546875 0.00328125 1.98756 3.63992e+21 2.42055e-05 2.50597 3.77074 1.30318 
0.00546875 0.00346875 2.05362 3.14376e+21 2.0906e-05 -8.54582 11.1682 0.725663 
0.00546875 0.00365625 1.76431 3.55065e+21 2.36118e-05 -1.70191 7.57288 -3.631 
0.00546875 0.00384375 1.94379 3.85548e+21 2.5639e-05 0.461498 0.974992 -0.0278091 
0.00546875 0.00403125 1.85301 3.48789e+21 2.31945e-05 5.39008 -1.72084 2.02641 
0.00546875 0.00421875 1.90055 3.34234e+21 2.22266e-05 1.35266 4.10244 -5.14544 
0.00546875 0.00440625 2.03393 3.56273e+21 2.36922e-05 -5.60663 -3.28242 -4.35418 
0.00546875 0.00609375 1.81496 3.34963e+21 2.2275e-05 -1.66071 7.11721 1.05213 
0.00546875 0.00628125 1.97755 3.44042e+21 2.28788e-05 -3.97716 -1.81147 0.344581 
0.00546875 0.00646875 1.96351 3.34069e+21 2.22156e-05 -0.526001 2.50975 -0.500374 
0.00546875 0.00665625 2.0059 3.03655e+21 2.01931e-05 -0.528278 7.58809 -1.44305 
0.0120312 0.00609375 1.89892 2.69412e+21 1.79159e-05 -2.35871 2.30371 -0.377564 
0.0120312 0.00628125 2.0422 2.40702e+21 1.60067e-05 2.54056 -4.84876 -5.76719 
0.0120312 0.00646875 1.99622 2.63674e+21 1.75343e-05 2.537 1.25734 3.24858 
0.0120312 0.00665625 1.96606 2.61348e+21 1.73796e-05 -0.416618 0.432044 -3.16622 
0.00546875 0.00684375 1.89019 3.03507e+21 2.01832e-05 -1.08797 2.36154 -1.87206 
0.00546875 0.00703125 2.01115 3.0564e+21 2.0325e-05 -3.48801 3.69663 2.27776 
0.00546875 0.00721875 1.87046 3.38095e+21 2.24833e-05 0.159711 4.16278 0.300909 
0.00546875 0.00740625 2.0085 3.45716e+21 2.29901e-05 0.0699864 -1.24233 -2.96706 
0.0120312 0.00721875 1.99435 2.61733e+21 1.74053e-05 -0.992898 3.62218 -1.9612 
0.0120312 0.00740625 1.997 2.56995e+21 1.70902e-05 2.00627 -0.404225 -3.56515 
0.00546875 0.00909375 2.06728 2.98694e+21 1.98631e-05 -1.00596 -0.128546 -3.39158 
0.00546875 0.00928125 2.16628 2.99545e+21 1.99198e-05 -2.32027 3.19167 -0.0262025 
0.00546875 0.00946875 1.98352 3.13019e+21 2.08158e-05 1.57166 1.83956 2.92862 
0.00546875 0.00965625 2.01038 3.34243e+21 2.22272e-05 -0.495616 1.98117 -1.01206 
0.00546875 0.00984375 2.05571 2.73095e+21 1.81608e-05 -0.416502 6.79681 2.44284 
0.00546875 0.0100312 2.09306 2.99051e+21 1.98869e-05 -0.246911 -0.0488138 2.26476 
0.00546875 0.0102187 1.97017 2.98254e+21 1.98339e-05 -0.340636 5.39166 -0.820108 
0.00546875 0.0104062 1.89375 3.02861e+21 2.01402e-05 -0.595368 3.54515 2.56122 
0.00546875 0.0120938 2.00538 2.99906e+21 1.99437e-05 -2.00296 -0.579995 -0.154587 
0.00546875 0.0122813 1.98972 3.06386e+21 2.03746e-05 0.930556 2.18736 1.4043 
0.00546875 0.0124688 1.97301 3.04982e+21 2.02813e-05 -0.0784068 -1.65659 -0.000853963 
0.00546875 0.0126563 1.93795 2.87633e+21 1.91276e-05 0.20623 -1.16807 -2.04685 
0.0185937 0.00121875 2.04478 2.77634e+21 1.84627e-05 0.921182 -1.073 0.0735391 
0.0207812 0.00121875 2.04994 2.65217e+21 1.76369e-05 3.35854 -1.43431 -2.65445 
0.0251562 0.00121875 2.04364 2.71585e+21 1.80604e-05 2.64898 3.84779 2.3588 
0.0273437 0.00121875 2.10008 2.6649e+21 1.77216e-05 -1.14011 2.40615 0.987961 
0.0295312 0.00121875 2.06264 2.49934e+21 1.66206e-05 5.39447 -2.72949 0.0652688 
0.0295312 0.00140625 2.02224 2.58828e+21 1.72121e-05 1.102 -0.203294 -1.34078 
0.0185937 0.0216562 2.00786 2.64656e+21 1.75996e-05 -3.76445 1.7563 2.30727 
0.00546875 0.00178125 2.01711 3.18437e+21 2.11761e-05 20.874 13.6862 -0.593796 
0.00546875 0.00196875 1.99243 2.8811e+21 1.91593e-05 3.38476 6.44305 1.56766 
0.00546875 0.00215625 1.99029 3.09369e+21 2.05731e-05 0.27632 -9.06522 -0.405533 
0.00546875 0.00234375 1.88098 3.17002e+21 2.10806e-05 -4.10862 8.08325 -3.80169 
0.00546875 0.00253125 1.85216 3.48752e+21 2.3192e-05 0.630701 2.06892 -0.393827 
0.00546875 0.00271875 1.90011 3.57024e+21 2.37421e-05 -1.63521 8.55819 4.78906 
0.00546875 0.00290625 2.01572 3.22994e+21 2.14791e-05 -4.80667 8.82787 8.21577 
0.00546875 0.00459375 1.99221 3.41732e+21 2.27252e-05 -0.0621935 2.05975 0.406709 
0.00546875 0.00478125 1.89784 3.63419e+21 2.41674e-05 4.28991 2.10594 6.04215 
0.00546875 0.00496875 1.92777 3.37646e+21 2.24535e-05 5.37358 6.5017 -1.9368 
0.00546875 0.00515625 2.04628 3.50158e+21 2.32855e-05 -5.82628 -3.20431 3.12661 
0.0120312 0.00459375 1.96114 2.54342e+21 1.69138e-05 -4.82762 5.03074 -1.57632 
0.00546875 0.00534375 1.94258 3.45347e+21 2.29656e-05 1.63278 7.34837 4.42675 
0.00546875 0.00553125 1.93071 3.19197e+21 2.12266e-05 -1.57697 8.63932 -0.710261 
0.00546875 0.00571875 2.0179 3.0943e+21 2.05771e-05 -4.91536 1.62078 -0.45528 
0.00546875 0.00590625 1.83799 3.29365e+21 2.19028e-05 2.44539 4.31186 0.193827 
0.0120312 0.00534375 2.16878 2.74708e+21 1.82681e-05 -2.70354 0.489159 -2.63659 
0.0120312 0.00553125 2.03185 2.7009e+21 1.7961e-05 -0.316714 3.5146 -0.188692 
0.0120312 0.00571875 2.01177 2.59139e+21 1.72327e-05 -1.78961 1.69717 2.17005 
0.00546875 0.00759375 1.89623 3.22451e+21 2.1443e-05 2.73423 4.73666 -0.890457 
0.00546875 0.00778125 1.99557 3.22895e+21 2.14725e-05 1.51727 5.57446 6.07046 
0.00546875 0.00796875 1.92581 3.05272e+21 2.03006e-05 -0.212932 3.82188 -1.54923 
0.00546875 0.00815625 1.96439 2.95316e+21 1.96385e-05 1.14789 5.90728 3.9713 
0.0120312 0.00759375 1.98882 2.52753e+21 1.68081e-05 -0.303659 0.0991902 3.2786 
0.0120312 0.00778125 1.93134 2.62063e+21 1.74272e-05 -1.68856 -0.331708 -1.67223 
0.00546875 0.00834375 1.99173 3.01605e+21 2.00568e-05 2.15402 -2.88035 1.65141 
0.00546875 0.00853125 1.84938 2.97318e+21 1.97716e-05 2.4718 2.46156 0.628269 
0.00546875 0.00871875 1.8558 2.99629e+21 1.99253e-05 -1.61856 2.30912 1.25837 
0.00546875 0.00890625 2.09389 3.0857e+21 2.05199e-05 0.433062 3.40936 -1.18597 
0.0120312 0.00834375 2.07623 2.67854e+21 1.78123e-05 -1.47824 0.887652 1.06058 
0.0120312 0.00853125 1.99224 2.61733e+21 1.74053e-05 1.82357 -1.97195 2.69935 
0.00546875 0.0107812 1.97446 2.84916e+21 1.89469e-05 -0.277728 -0.439444 -2.16352 
0.00546875 0.0109687 2.06616 3.06266e+21 2.03667e-05 3.82702 1.56323 -3.86682 
0.00546875 0.0111562 1.88422 3.00403e+21 1.99768e-05 -2.53114 -0.466199 -2.76143 
0.00546875 0.0113437 2.00194 2.84521e+21 1.89207e-05 3.53243 1.22804 0.676001 
0.00546875 0.0115312 2.03877 2.85091e+21 1.89585e-05 1.89136 0.366241 -0.98662 
0.00546875 0.0117188 2.0052 2.99618e+21 1.99246e-05 1.73331 1.50777 -0.174904 
0.00546875 0.0119063 1.94445 2.79467e+21 1.85845e-05 -1.63068 -0.28244 -0.00262831 
0.0273437 0.00159375 2.015 2.59786e+21 1.72757e-05 0.603569 -3.44168 -0.969034 
0.0404687 0.00159375 2.02803 2.66846e+21 1.77453e-05 3.23132 0.106812 1.87558 
0.0470312 0.00159375 1.9581 2.56864e+21 1.70814e-05 3.40788 0.788333 -2.38444 
0.0514062 0.00159375 1.99302 2.69038e+21 1.7891e-05 1.65278 1.3309 -1.34409 
0.0196875 0.0001875 1.99686 2.55068e+21 1.6962e-05 2.21062 5.52229 4.80827 
0.0240625 0.0001875 1.91031 2.66968e+21 1.77534e-05 6.81861 -2.3663 1.15587 
0.0284375 0.0001875 1.90971 2.54551e+21 1.69276e-05 -1.1583 0.0576335 -0.156303 
0.0328125 0.0001875 2.05879 2.51447e+21 1.67212e-05 -4.90522 -6.26363 0.768646 
0.00984375 0.00309375 2.00446 3.71452e+21 2.47016e-05 -1.40638 15.353 2.10489 
0.0120312 0.00309375 1.99237 2.5952e+21 1.72581e-05 0.345366 -2.42552 2.62973 
0.0120312 0.00328125 2.01417 2.75124e+21 1.82958e-05 0.94023 -2.38094 -2.19804 
0.0120312 0.00346875 1.9906 2.67738e+21 1.78046e-05 -3.41533 2.33577 4.30821 
0.0120312 0.00365625 1.98462 2.64933e+21 1.7618e-05 1.82643 -1.18301 6.89183 
0.0120312 0.00384375 2.01247 2.67597e+21 1.77952e-05 -1.90659 -3.0194 -4.09884 
0.0120312 0.00403125 2.05095 2.57628e+21 1.71323e-05 -2.06685 0.341603 -2.09217 
0.0120312 0.00421875 2.04701 2.48072e+21 1.64968e-05 -3.44148 -3.39015 -1.8783 
0.0120312 0.00440625 1.93225 2.70605e+21 1.79952e-05 -0.517437 2.20815 0.968749 
0.0120312 0.00271875 1.96596 2.46831e+21 1.64143e-05 3.52841 1.58696 -1.95557 
0.00984375 0.00290625 1.9721 3.92421e+21 2.6096e-05 1.11953 12.9389 0.0843681 
0.0120312 0.00290625 2.0422 2.43964e+21 1.62236e-05 3.01989 -5.93014 -2.64049 
0.0120312 0.00496875 1.97446 2.71725e+21 1.80697e-05 2.40007 -3.05523 0.889972 
0.0120312 0.00515625 1.94569 2.54097e+21 1.68975e-05 -3.59964 4.56046 -1.86491 
0.0185937 0.00159375 2.06217 2.65142e+21 1.76319e-05 3.87279 -1.14 -0.988488 
0.0207812 0.00159375 1.86128 2.66603e+21 1.77291e-05 0.93313 -1.75311 4.2451 
0.0382812 0.00159375 1.92713 2.53942e+21 1.68872e-05 0.846562 1.79737 -0.421505 
0.00492187 0.000796875 1.74913 1.12971e+22 7.5126e-05 40.3555 -0.415973 -2.31439 
0.00601562 0.000796875 1.88077 8.35599e+21 5.55673e-05 45.3399 5.36421 2.62791 
0.00492187 0.000890625 1.85287 1.04217e+22 6.93041e-05 36.9553 1.50865 0.0235061 
0.00601562 0.000890625 1.82684 8.15609e+21 5.4238e-05 42.0763 0.957539 2.31569 
0.00492187 0.000984375 1.94094 1.02333e+22 6.80513e-05 35.7491 0.930609 -4.96299 
0.00601562 0.000984375 1.75042 9.08223e+21 6.03969e-05 47.8792 4.92089 -0.965539 
0.00492187 0.00107813 1.88242 1.08263e+22 7.19948e-05 34.1299 -2.08543 -0.525135 
0.00601562 0.00107813 1.75011 8.13411e+21 5.40918e-05 42.6808 2.58788 0.535616 
0.00273437 0.00117188 1.50438 1.45939e+22 9.70497e-05 28.2167 1.78358 -1.8941 
0.00382812 0.00117188 2.03715 1.32847e+22 8.8343e-05 24.5324 -4.52968 3.51399 
0.00273437 0.00126563 1.75661 1.52351e+22 0.000101314 18.1642 -1.30947 2.71612 
0.00273437 0.00135937 1.92509 1.49245e+22 9.9248e-05 21.8446 -5.52807 2.03643 
0.00273437 0.00145312 1.72102 1.65001e+22 0.000109726 18.7769 -9.36646 -4.52302 
0.00492187 0.00117188 1.90927 1.12582e+22 7.48669e-05 29.7092 1.12748 2.07983 
0.00601562 0.00117188 1.77293 8.26483e+21 5.49611e-05 41.439 4.34826 4.38265 
0.00492187 0.00126563 1.88273 1.03384e+22 6.87504e-05 23.5366 0.072739 -1.6632 
0.00601562 0.00126563 1.89093 7.46867e+21 4.96666e-05 36.0479 5.38297 3.59454 
0.00601562 0.00135937 1.82186 8.4836e+21 5.6416e-05 35.2166 5.10581 -1.70421 
0.00492187 0.00145312 1.99452 1.05212e+22 6.99658e-05 17.7045 -0.487275 2.32838 
0.00601562 0.00145312 1.97565 7.76537e+21 5.16397e-05 27.7787 4.65555 -2.09982 
0.00710937 0.00323438 1.99323 3.50799e+21 2.33281e-05 -2.96649 11.1612 -5.59245 
0.00820312 0.00323438 1.85634 3.70954e+21 2.46684e-05 -0.911504 9.57149 2.37165 
0.00710937 0.00332813 1.88898 3.26459e+21 2.17096e-05 0.61739 9.50877 3.32654 
0.00820312 0.00332813 1.91344 3.84289e+21 2.55552e-05 -1.29977 14.7977 0.40815 
0.00710937 0.00342187 1.99972 3.66503e+21 2.43725e-05 -0.938378 1.77944 3.39071 
0.00710937 0.00351562 2.0107 3.42161e+21 2.27537e-05 -2.29176 10.8723 1.36453 
0.00820312 0.00351562 2.05329 3.61145e+21 2.40161e-05 -1.95592 12.7473 -2.30174 
0.00710937 0.00360937 1.99871 3.51335e+21 2.33637e-05 1.87214 10.9608 0.715822 
0.00820312 0.00360937 2.01433 3.59505e+21 2.39071e-05 1.22833 15.285 -0.792747 
0.00710937 0.00370312 1.90255 3.58367e+21 2.38314e-05 -2.81084 10.9247 -1.01807 
0.00710937 0.00379687 1.93935 3.23765e+21 2.15304e-05 3.13453 11.766 2.11725 
0.00820312 0.00379687 2.00272 3.43796e+21 2.28624e-05 -1.13198 13.8028 -1.7979 
0.00820312 0.00389062 2.04411 3.60246e+21 2.39564e-05 -3.385 8.91988 0.995966 
0.00710937 0.00398438 2.01586 3.31902e+21 2.20715e-05 -1.97902 9.36152 0.516781 
0.00820312 0.00398438 1.95032 3.61509e+21 2.40403e-05 -1.21927 13.5009 -0.296056 
0.00710937 0.00407813 2.07639 3.26175e+21 2.16907e-05 -1.65083 9.43088 -0.532035 
0.00820312 0.00407813 1.99964 3.76034e+21 2.50063e-05 -0.106647 11.5359 -3.53506 
0.00710937 0.00417188 2.04236 3.16613e+21 2.10548e-05 -0.957858 4.69895 0.25248 
0.00710937 0.00426563 1.94178 3.48589e+21 2.31812e-05 -0.0708915 5.35533 0.639701 
0.00820312 0.00426563 1.91281 3.29668e+21 2.19229e-05 -2.3197 14.0393 0.730563 
0.00710937 0.00435938 1.97559 3.33971e+21 2.22091e-05 1.76787 5.80558 -1.4782 
0.00710937 0.00445313 1.99377 3.32866e+21 2.21356e-05 -2.03032 9.68665 -1.35907 
0.0136719 0.00398438 2.03716 2.70742e+21 1.80043e-05 0.360955 0.116821 2.60768 
0.0147656 0.00398438 2.0964 2.36071e+21 1.56987e-05 4.5162 3.584 3.3668 
0.0136719 0.00407813 1.89724 2.58048e+21 1.71602e-05 -0.315126 -1.48543 0.718941 
0.0147656 0.00407813 1.9997 2.55764e+21 1.70083e-05 4.38253 2.80189 -4.1239 
0.00929687 0.00604688 1.96115 3.34019e+21 2.22123e-05 2.82908 8.81752 -1.48666 
0.0103906 0.00604688 0 0 0 0 0 0 
0.00929687 0.00614063 1.9903 3.20413e+21 2.13075e-05 -0.675515 4.52929 -1.90109 
0.0103906 0.00614063 0 0 0 0 0 0 
0.00929687 0.00623438 2.0167 3.16991e+21 2.10799e-05 3.37771 4.64844 2.70456 
0.0103906 0.00623438 0 0 0 0 0 0 
0.00929687 0.00632813 2.03314 3.37746e+21 2.24601e-05 -1.47459 8.24257 1.83572 
0.0103906 0.00632813 0 0 0 0 0 0 
0.0136719 0.00642188 2.03059 2.65624e+21 1.7664e-05 0.909946 2.40864 0.77216 
0.0169531 0.00651563 1.98284 2.62278e+21 1.74415e-05 2.20709 -0.304252 -2.03893 
0.0169531 0.00660938 2.07359 2.56679e+21 1.70692e-05 1.36654 -0.96269 0.624027 
0.0147656 0.00679687 2.04963 2.68324e+21 1.78435e-05 0.522133 -1.70865 -1.83307 
0.00929687 0.00717187 2.0405 3.08026e+21 2.04837e-05 4.34022 4.06513 0.797061 
0.0103906 0.00717187 0 0 0 0 0 0 
0.0103906 0.00726562 0 0 0 0 0 0 
0.0158594 0.00745312 2.01258 2.71771e+21 1.80728e-05 -0.187505 -2.58833 -1.50195 
0.0103906 0.00923437 0 0 0 0 0 0 
0.0103906 0.00932812 0 0 0 0 0 0 
0.0114844 0.0127031 2.04278 2.9225e+21 1.94346e-05 1.442 -1.41853 -0.794708 
0.0125781 0.0127031 2.04559 2.75197e+21 1.83006e-05 0.151066 2.56022 -1.15604 
0.0147656 0.0127031 1.9196 2.6654e+21 1.77249e-05 0.725658 -0.734497 1.90656 
0.0169531 0.0127031 2.05779 2.71787e+21 1.80738e-05 0.703539 0.333532 -3.70079 
0.0289844 0.00379687 2.00083 2.61219e+21 1.73711e-05 3.28606 -1.97187 -0.414367 
0.0300781 0.00379687 2.00169 2.62037e+21 1.74255e-05 1.73108 -1.31183 3.65206 
0.0289844 0.00389062 1.92619 2.74872e+21 1.8279e-05 1.50049 0.262508 2.67749 
0.0300781 0.00389062 1.95713 2.65696e+21 1.76688e-05 5.037 -0.0546612 -2.17574 
0.0180469 0.00614063 2.01157 2.65657e+21 1.76662e-05 0.0668996 -1.45612 3.59147 
0.0191406 0.00614063 2.08286 2.61107e+21 1.73636e-05 1.99588 1.42466 -0.0493492 
0.0202344 0.00614063 1.98314 2.77537e+21 1.84562e-05 0.346702 1.16396 -0.905745 
0.0202344 0.00623438 2.02545 2.67139e+21 1.77648e-05 3.54154 -1.7359 0.866309 
0.0213281 0.00623438 1.93679 2.69878e+21 1.79469e-05 3.63854 -4.45692 -2.24756 
0.0213281 0.00632813 1.94656 2.74219e+21 1.82356e-05 2.79327 1.65569 -1.90674 
0.0257031 0.00614063 1.98811 2.71723e+21 1.80696e-05 2.99652 -1.45713 -1.95929 
0.0224219 0.00623438 1.95772 2.70376e+21 1.798e-05 1.53336 1.61771 2.52096 
0.0235156 0.00623438 1.97207 2.66143e+21 1.76985e-05 0.703127 0.303473 0.699684 
0.0235156 0.00632813 1.94635 2.62446e+21 1.74526e-05 4.45136 1.10104 -2.07439 
0.0180469 0.00642188 2.01741 2.62723e+21 1.74711e-05 -1.3189 0.940427 0.0803092 
0.0191406 0.00642188 1.97879 2.61998e+21 1.74229e-05 6.5856 -0.56895 -2.41391 
0.0180469 0.00651563 2.05648 2.65851e+21 1.76791e-05 5.74272 -1.30138 -1.16799 
0.0202344 0.00642188 1.94906 2.54506e+21 1.69246e-05 0.25199 -1.44705 -1.41069 
0.0235156 0.00670313 2.12923 2.82728e+21 1.88014e-05 -1.59282 0.724274 0.851327 
0.0257031 0.00660938 2.00698 2.58558e+21 1.71941e-05 1.12815 -0.960528 0.0144227 
0.0278906 0.00604688 2.01633 2.61562e+21 1.73938e-05 1.41392 -2.74488 -1.36127 
0.0289844 0.00614063 2.03962 2.76526e+21 1.8389e-05 -0.479765 2.6013 2.33068 
0.0322656 0.00604688 1.96428 2.67979e+21 1.78206e-05 2.35608 -0.729927 -0.92002 
0.0311719 0.00614063 2.05153 2.47458e+21 1.64559e-05 3.71755 -1.54669 -4.17283 
0.0333594 0.00604688 2.0721 2.70289e+21 1.79742e-05 5.03862 3.94163 3.10274 
0.0344531 0.00604688 1.98268 2.74653e+21 1.82644e-05 2.68071 2.43394 -1.72652 
0.0311719 0.00623438 1.99624 2.64898e+21 1.76158e-05 -0.00083294 3.34034 0.668372 
0.0344531 0.00632813 1.95262 2.70785e+21 1.80072e-05 2.68878 -1.26559 0.568363 
0.0322656 0.00642188 2.02452 2.67799e+21 1.78086e-05 0.198897 -2.91737 0.9094 
0.0344531 0.00651563 2.03005 2.6871e+21 1.78692e-05 1.85844 -1.78449 1.11172 
0.0322656 0.00660938 1.96316 2.60202e+21 1.73034e-05 0.933236 -1.7522 1.24926 
0.0344531 0.00660938 2.00198 2.65133e+21 1.76314e-05 0.938087 0.464399 2.54298 
0.0180469 0.00679687 2.01721 2.66954e+21 1.77524e-05 3.74161 2.74627 1.15283 
0.0202344 0.00698437 1.96313 2.64898e+21 1.76158e-05 2.4314 -3.03249 -3.58011 
0.0213281 0.00707812 1.97575 2.53057e+21 1.68283e-05 1.09212 -0.774565 -1.01215 
0.0246094 0.00698437 2.13135 2.68899e+21 1.78818e-05 2.3788 0.325558 0.958373 
0.0191406 0.00717187 1.94487 2.69227e+21 1.79036e-05 -0.834731 -0.643449 -1.77892 
0.0235156 0.00717187 1.97641 2.63816e+21 1.75438e-05 2.40283 -0.751084 -2.20954 
0.0278906 0.00679687 2.07244 2.76545e+21 1.83902e-05 0.759706 -0.456877 3.40157 
0.0267969 0.00689062 1.97855 2.658e+21 1.76757e-05 1.41224 -1.48827 0.245481 
0.0289844 0.00689062 2.02989 2.56564e+21 1.70615e-05 3.03674 -0.996416 0.051687 
0.0267969 0.00707812 2.0156 2.54592e+21 1.69304e-05 1.86831 0.291836 -0.105972 
0.0344531 0.00679687 1.96698 2.48685e+21 1.65375e-05 2.07186 0.950505 1.56501 
0.0322656 0.00707812 2.0136 2.62267e+21 1.74408e-05 2.47395 -0.12422 -1.47464 
0.0289844 0.00735937 1.95987 2.64688e+21 1.76017e-05 0.264193 0.710748 0.0361092 
0.0333594 0.00726562 1.95879 2.64685e+21 1.76015e-05 2.76765 1.96941 -0.334402 
0.0311719 0.00735937 2.01473 2.76287e+21 1.83731e-05 1.92943 -1.76111 0.42599 
0.0322656 0.00745312 2.01883 2.68439e+21 1.78512e-05 -2.0638 -0.300319 -0.836041 
0.0180469 0.0152344 0 0 0 0 0 0 
0.0180469 0.0153281 0 0 0 0 0 0 
0.0180469 0.0182344 0 0 0 0 0 0 
0.0180469 0.0183281 0 0 0 0 0 0 
0.0180469 0.0187969 0 0 0 0 0 0 
0.0180469 0.0188906 0 0 0 0 0 0 
0.0180469 0.0191719 0 0 0 0 0 0 
0.0180469 0.0192656 0 0 0 0 0 0 
0.0180469 0.0210469 0 0 0 0 0 0 
0.0180469 0.0211406 0 0 0 0 0 0 
0.0180469 0.0212344 0 0 0 0 0 0 
0.0180469 0.0213281 0 0 0 0 0 0 
0.0180469 0.0214219 0 0 0 0 0 0 
0.0180469 0.0215156 0 0 0 0 0 0 
0.0202344 0.0217031 0 0 0 0 0 0 
0.0213281 0.0217031 0 0 0 0 0 0 
0.00601562 0.00154688 1.93873 7.47233e+21 4.9691e-05 17.5856 6.18674 -1.7174 
0.00492187 0.00164063 0 0 0 0 0 0 
0.00601562 0.00164063 2.0352 4.33382e+21 2.88199e-05 30.0353 24.808 -8.76333 
0.00710937 0.00173438 1.87176 4.27775e+21 2.84471e-05 16.8684 21.2492 -3.20071 
0.00820312 0.00173438 2.12339 4.31355e+21 2.86851e-05 14.1611 16.2051 -2.56227 
0.00710937 0.00182813 1.99398 3.73575e+21 2.48427e-05 11.4357 25.7004 -1.64397 
0.00820312 0.00182813 1.99777 4.07536e+21 2.71012e-05 15.4447 16.9427 -1.55158 
0.00710937 0.00267187 2.07867 3.49132e+21 2.32172e-05 0.306749 9.30128 1.5573 
0.00820312 0.00267187 1.9619 3.75273e+21 2.49556e-05 1.90166 18.4369 2.05006 
0.00710937 0.00276562 1.98659 3.68725e+21 2.45202e-05 0.346813 8.36981 -2.91866 
0.00820312 0.00276562 2.11407 3.73215e+21 2.48188e-05 0.938757 17.418 -0.302378 
0.00820312 0.00454687 1.89041 3.44778e+21 2.29277e-05 0.828689 12.0812 -3.54434 
0.00710937 0.00464062 2.02235 3.30789e+21 2.19974e-05 1.25625 4.44201 -2.56465 
0.00820312 0.00464062 2.0268 3.51526e+21 2.33765e-05 0.200635 13.1697 1.43929 
0.00710937 0.00482812 2.02822 3.34338e+21 2.22335e-05 -0.839599 6.33776 -1.12109 
0.00710937 0.00501562 1.94493 3.34527e+21 2.22461e-05 -1.31082 6.78061 -1.48625 
0.0136719 0.00454687 2.05434 2.50561e+21 1.66623e-05 2.8985 2.06064 1.73709 
0.0147656 0.00454687 2.01366 2.49537e+21 1.65942e-05 -0.451225 -3.72473 1.06427 
0.0136719 0.00464062 2.04383 2.70584e+21 1.79939e-05 0.932749 1.45126 1.3325 
0.0147656 0.00464062 2.01538 2.65233e+21 1.7638e-05 1.35066 -1.43122 -1.65477 
0.0158594 0.00492187 1.9773 2.62691e+21 1.7469e-05 -1.11853 0.285226 -0.849353 
0.0169531 0.00492187 2.12544 2.32732e+21 1.54767e-05 4.83131 0.809008 -1.50867 
0.0158594 0.00501562 1.98522 2.57471e+21 1.71219e-05 0.442112 -3.83087 -3.91769 
0.0136719 0.00548437 2.06356 2.79332e+21 1.85756e-05 0.678264 1.49686 0.0235132 
0.0147656 0.00557812 1.91084 2.79924e+21 1.8615e-05 4.22791 -1.14352 2.78709 
0.0158594 0.00548437 1.99878 2.71691e+21 1.80674e-05 -1.86224 0.567337 0.488213 
0.0169531 0.00548437 1.93472 2.64332e+21 1.75781e-05 -3.37902 0.42164 -1.77452 
0.0169531 0.00557812 2.04024 2.60168e+21 1.73012e-05 -3.24815 1.51168 -2.99795 
0.0136719 0.00567187 2.0533 2.72561e+21 1.81253e-05 1.19646 -0.131115 -0.731404 
0.0147656 0.00567187 1.98894 2.61067e+21 1.7361e-05 -0.232452 -0.78753 0.899925 
0.0136719 0.00576562 1.96644 2.54938e+21 1.69534e-05 1.71259 1.26055 -0.0855963 
0.0158594 0.00567187 2.05374 2.67909e+21 1.78159e-05 2.20953 -0.350611 -1.00289 
0.0158594 0.00576562 2.00448 2.66245e+21 1.77053e-05 -2.34231 2.38559 1.90618 
0.0147656 0.00585938 1.99806 2.6066e+21 1.73339e-05 2.3963 0.165274 1.75063 
0.0147656 0.00595313 1.97041 2.63595e+21 1.75291e-05 0.0780199 0.504562 -2.65088 
0.0158594 0.00585938 2.03999 2.50329e+21 1.66469e-05 0.779679 -2.84123 -3.20072 
0.0169531 0.00585938 2.05337 2.49269e+21 1.65764e-05 -0.588591 -0.499055 3.13417 
0.0158594 0.00595313 1.96752 2.62291e+21 1.74424e-05 0.502684 0.15195 -1.7765 
0.0103906 0.00754687 0 0 0 0 0 0 
0.00929687 0.00764062 1.96435 3.15051e+21 2.09509e-05 -1.36049 4.86884 -1.08273 
0.0103906 0.00764062 0 0 0 0 0 0 
0.0103906 0.00829688 0 0 0 0 0 0 
0.0103906 0.00839063 0 0 0 0 0 0 
0.0103906 0.00867188 0 0 0 0 0 0 
0.0103906 0.00876563 0 0 0 0 0 0 
0.0103906 0.00885938 0 0 0 0 0 0 
0.0103906 0.00895312 0 0 0 0 0 0 
0.0311719 0.00267187 1.9293 2.37595e+21 1.58001e-05 4.22395 2.66149 -2.9294 
0.0322656 0.00267187 2.06459 2.44566e+21 1.62637e-05 -0.513936 -1.10804 -0.553139 
0.0311719 0.00276562 1.94045 2.66021e+21 1.76904e-05 5.33694 -4.55482 6.31007 
0.0322656 0.00276562 1.97897 2.5199e+21 1.67574e-05 3.37278 0.519682 3.01986 
0.0311719 0.00285937 1.89978 2.67613e+21 1.77962e-05 1.88864 -0.774388 -3.74657 
0.0322656 0.00285937 1.95787 2.74127e+21 1.82294e-05 5.10376 -1.38506 -4.70319 
0.0311719 0.00295313 2.14939 2.57015e+21 1.70915e-05 2.85709 3.15757 -0.239599 
0.0322656 0.00295313 2.0271 2.444e+21 1.62526e-05 2.02422 1.36446 2.01254 
0.0180469 0.00454687 1.97937 2.79577e+21 1.85919e-05 -2.80925 0.601763 -0.133735 
0.0180469 0.00464062 2.02714 2.53527e+21 1.68595e-05 0.301889 -5.2373 -1.44377 
0.0191406 0.00464062 1.97575 2.7995e+21 1.86166e-05 0.880192 2.42693 1.94769 
0.0202344 0.00454687 1.95589 2.53975e+21 1.68893e-05 -0.627529 5.78294 -0.317344 
0.0213281 0.00454687 2.05872 2.69678e+21 1.79336e-05 0.0334846 -4.35205 0.725941 
0.0202344 0.00464062 2.05807 2.72257e+21 1.81051e-05 3.24653 1.06393 -1.84136 
0.0213281 0.00464062 2.11359 2.52523e+21 1.67928e-05 0.598898 0.988043 -1.01908 
0.0224219 0.00492187 1.9621 2.63322e+21 1.75109e-05 3.40058 -3.30023 -1.64673 
0.0235156 0.00492187 2.11506 2.60168e+21 1.73012e-05 4.74468 -2.51127 -3.70617 
0.0224219 0.00501562 2.00164 2.48497e+21 1.65251e-05 1.66842 -0.715878 1.41722 
0.0235156 0.00501562 1.98133 2.73254e+21 1.81714e-05 -0.0506364 3.66165 -1.50881 
0.0267969 0.00492187 2.042 2.65845e+21 1.76787e-05 5.70792 0.184377 -1.75254 
0.0278906 0.00492187 2.0288 2.67737e+21 1.78045e-05 -0.668569 -0.232775 -2.23962 
0.0267969 0.00501562 1.92094 2.55615e+21 1.69984e-05 3.83211 -3.51634 1.875 
0.0278906 0.00501562 2.09301 2.67993e+21 1.78215e-05 -0.758489 -1.72055 0.396943 
0.0289844 0.00492187 1.99965 2.56069e+21 1.70286e-05 3.28642 4.89617 -2.41148 
0.0300781 0.00492187 1.98497 2.45031e+21 1.62946e-05 1.33167 1.32047 -2.77435 
0.0289844 0.00501562 1.97146 2.70469e+21 1.79862e-05 5.03846 -0.753974 0.299407 
0.0300781 0.00501562 1.96 2.61185e+21 1.73688e-05 4.6384 3.64147 -2.10648 
0.0267969 0.00510937 1.94866 2.67936e+21 1.78178e-05 5.01232 1.15511 4.14463 
0.0278906 0.00510937 1.98013 2.52747e+21 1.68077e-05 1.81668 2.21472 -0.40445 
0.0267969 0.00520312 2.03307 2.51773e+21 1.67429e-05 3.69328 -3.16338 -0.244366 
0.0278906 0.00520312 1.94826 2.57739e+21 1.71396e-05 3.69857 1.94437 4.71264 
0.0322656 0.00510937 1.96968 2.64291e+21 1.75753e-05 2.31405 -4.23331 2.87787 
0.0311719 0.00520312 2.03952 2.6818e+21 1.7834e-05 -2.85755 2.41904 -2.82186 
0.0202344 0.00529687 1.95822 2.69587e+21 1.79275e-05 3.11546 1.42243 1.54065 
0.0213281 0.00529687 2.05407 2.5054e+21 1.66609e-05 3.08861 -0.459997 -0.423323 
0.0202344 0.00539062 2.03762 2.55397e+21 1.69839e-05 0.671545 -0.640836 0.271148 
0.0213281 0.00539062 2.03781 2.67202e+21 1.77689e-05 3.72202 2.15386 3.13669 
0.0202344 0.00567187 1.90385 2.61888e+21 1.74156e-05 3.72474 1.80374 -1.72248 
0.0202344 0.00576562 1.92747 2.56284e+21 1.70429e-05 3.02578 1.5276 0.854627 
0.0180469 0.00585938 2.06872 2.63574e+21 1.75277e-05 1.492 -2.19909 0.876103 
0.0191406 0.00585938 1.95737 2.75759e+21 1.8338e-05 0.528763 -3.13797 -0.443248 
0.0224219 0.00585938 2.06282 2.58806e+21 1.72106e-05 2.83861 -0.476461 1.76309 
0.0267969 0.00529687 1.95112 2.61968e+21 1.74209e-05 2.28269 0.190033 -1.32034 
0.0278906 0.00529687 1.99627 2.58159e+21 1.71676e-05 -3.24073 3.71164 0.208527 
0.0278906 0.00539062 2.01461 2.48198e+21 1.65052e-05 2.48188 -0.717142 -2.01572 
0.0289844 0.00529687 2.02007 2.77499e+21 1.84537e-05 -0.29298 1.40877 -1.6516 
0.0300781 0.00529687 1.96024 2.54936e+21 1.69532e-05 7.74456 1.58029 -2.7951 
0.0289844 0.00539062 2.0265 2.54533e+21 1.69264e-05 1.48832 4.79784 3.28978 
0.0300781 0.00539062 2.05813 2.70657e+21 1.79987e-05 -1.04726 2.55502 0.234339 
0.0289844 0.00548437 2.00241 2.46503e+21 1.63924e-05 0.621391 -3.72579 0.31301 
0.0300781 0.00548437 1.94781 2.70559e+21 1.79922e-05 -0.952105 0.126319 -2.28276 
0.0300781 0.00557812 1.92306 2.56551e+21 1.70606e-05 0.928917 3.86185 -1.41198 
0.0344531 0.00529687 2.02479 2.58159e+21 1.71676e-05 2.75962 3.15164 -0.0518154 
0.0333594 0.00539062 2.00237 2.6058e+21 1.73285e-05 0.882006 2.61984 4.30796 
0.0344531 0.00539062 1.93269 2.56548e+21 1.70605e-05 4.29211 0.562069 -2.93284 
0.0333594 0.00548437 1.93079 2.50182e+21 1.66371e-05 0.268653 2.15447 1.02181 
0.0344531 0.00548437 1.94114 2.64049e+21 1.75593e-05 0.713109 -2.66999 -0.551571 
0.0333594 0.00557812 2.06686 2.63785e+21 1.75417e-05 0.500202 0.447975 4.05482 
0.0267969 0.00567187 2.0303 2.55321e+21 1.69788e-05 0.180124 0.289094 1.18888 
0.0278906 0.00567187 1.93111 2.79129e+21 1.85621e-05 1.87651 -1.73635 -1.91926 
0.0267969 0.00576562 1.97736 2.69744e+21 1.7938e-05 6.48359 3.08215 -0.861761 
0.0289844 0.00567187 2.03073 2.545e+21 1.69242e-05 3.20174 -2.78532 -2.14764 
0.0300781 0.00567187 1.98958 2.72561e+21 1.81253e-05 -1.52722 -1.03384 -1.94172 
0.0289844 0.00576562 1.97443 2.62745e+21 1.74725e-05 1.73313 -0.49647 -0.865499 
0.0278906 0.00585938 1.95811 2.49005e+21 1.65588e-05 -1.43022 0.509703 1.82288 
0.0267969 0.00595313 2.00672 2.59423e+21 1.72516e-05 3.15924 -0.342227 3.34426 
0.0289844 0.00585938 1.97147 2.79203e+21 1.8567e-05 -3.43995 0.379515 0.529325 
0.0300781 0.00585938 1.96847 2.58541e+21 1.7193e-05 0.0107911 1.63144 2.20315 