ITEM: TIMESTEP
2600000
ITEM: NUMBER OF SURFS
38
ITEM: BOX BOUNDS oo ao pp
0 0.35
0 0.03
-0.1 0.1
ITEM: SURFS id v1x v1y v2x v2y 
1 0.00635 0.00159 0.00318 0.00159 
25 0.08839 0.00082 0.08907 0.00082 
2 0.00635 0.0127 0.00635 0.00159 
26 0.08839 0.00014 0.08839 0.00082 
3 0.01905 0.0127 0.00635 0.0127 
27 0.08907 0.00119 0.08839 0.00119 
4 0.01905 0.02159 0.01905 0.0127 
28 0.08907 0.00187 0.08907 0.00119 
5 0.0635 0.02159 0.01905 0.02159 
29 0.08839 0.00187 0.08907 0.00187 
6 0.0635 0.0035 0.0635 0.02159 
30 0.08839 0.00119 0.08839 0.00187 
7 0.06509 0.0035 0.0635 0.0035 
31 0.08907 0.00225 0.08839 0.00225 
8 0.06509 0.0254 0.06509 0.0035 
32 0.08907 0.00292 0.08907 0.00225 
9 0 0.0254 0.06509 0.0254 
33 0.08839 0.00292 0.08907 0.00292 
10 0 0 0 0.0254 
34 0.08839 0.00225 0.08839 0.00292 
11 0.00318 0 0 0 
35 0.08907 0.0033 0.08839 0.0033 
12 0.00318 0.00159 0.00318 0 
36 0.08907 0.00398 0.08907 0.0033 
13 0.00953 0 0.00953 0.00953 
37 0.08839 0.00398 0.08907 0.00398 
14 0.00953 0.00953 0.0127 0.00953 
38 0.08839 0.0033 0.08839 0.00398 
15 0.0127 0.00953 0.0127 0 
16 0.0127 0 0.00953 0 
17 0.08779 0.0127 0.06779 0.0127 
18 0.08779 0.0044 0.08779 0.0127 
19 0.08839 0.0044 0.08779 0.0044 
20 0.08839 0.02223 0.08839 0.0044 
21 0.06779 0.02223 0.08839 0.02223 
22 0.06779 0.0127 0.06779 0.02223 
23 0.08907 0.00014 0.08839 0.00014 
24 0.08907 0.00082 0.08907 0.00014 
