ITEM: TIMESTEP
500000
ITEM: NUMBER OF CELLS
8869
ITEM: BOX BOUNDS oo ao pp
0 0.12
0 0.03
-0.1 0.1
ITEM: CELLS xc yc f_out[1] f_out[2] f_out[3] f_out[4] f_out[5] f_out[6] 
0.003 0.00675 0 0 0 0 0 0 
0.003 0.01275 0 0 0 0 0 0 
0.009 0.00675 0 0 0 0 0 0 
0.009 0.01275 0 0 0 0 0 0 
0.003 0.00825 0 0 0 0 0 0 
0.003 0.01425 0 0 0 0 0 0 
0.009 0.00825 0 0 0 0 0 0 
0.009 0.01425 0 0 0 0 0 0 
0.015 0.00825 0 0 0 0 0 0 
0.015 0.01425 0 0 0 0 0 0 
0.003 0.00375 0 0 0 0 0 0 
0.003 0.00975 0 0 0 0 0 0 
0.009 0.00375 0 0 0 0 0 0 
0.009 0.00975 0 0 0 0 0 0 
0.003 0.00525 0 0 0 0 0 0 
0.003 0.01125 0 0 0 0 0 0 
0.009 0.00525 0 0 0 0 0 0 
0.009 0.01125 0 0 0 0 0 0 
0.015 0.00525 0 0 0 0 0 0 
0.015 0.01125 0 0 0 0 0 0 
0.0015 0.000375 0 0 0 0 0 0 
0.0015 0.001125 0 0 0 0 0 0 
0.0015 0.001875 0 0 0 0 0 0 
0.0015 0.002625 0 0 0 0 0 0 
0.0045 0.002625 0 0 0 0 0 0 
0.0075 0.002625 0 0 0 0 0 0 
0.0105 0.002625 0 0 0 0 0 0 
0.0135 0.002625 0 0 0 0 0 0 
0.0165 0.002625 0 0 0 0 0 0 
0.00375 0.0001875 0 0 0 0 0 0 
0.00525 0.0001875 3.83289 3.12821e+22 0.000208026 21.3624 -5.0294 -0.589224 
0.00375 0.0005625 0 0 0 0 0 0 
0.00375 0.0009375 0 0 0 0 0 0 
0.00375 0.0013125 0 0 0 0 0 0 
0.00825 0.0001875 3.86943 3.07841e+22 0.000204714 26.8573 1.402 0.0745964 
0.00975 0.0001875 3.90353 2.69512e+22 0.000179225 24.207 0.000279396 -4.61148 
0.00375 0.0016875 0 0 0 0 0 0 
0.00375 0.0020625 0 0 0 0 0 0 
0.004875 0.00046875 3.59597 3.52025e+22 0.000234097 16.7032 -8.1242 -5.74201 
0.005625 0.00046875 3.91146 3.27881e+22 0.000218041 18.6639 1.62893 -5.79987 
0.004875 0.00065625 3.97266 3.30088e+22 0.000219509 -0.00770936 9.11731 6.09544 
0.004875 0.00084375 4.12314 3.35607e+22 0.000223179 16.355 -4.91623 1.9577 
0.004875 0.00103125 4.01249 3.10146e+22 0.000206247 4.59971 -5.6615 2.88987 
0.004875 0.00121875 4.12263 3.30964e+22 0.000220091 9.47486 -7.15379 0.754402 
0.004875 0.00140625 3.62752 3.26915e+22 0.000217399 17.063 -7.60973 7.5151 
0.006375 0.00046875 3.87356 2.90699e+22 0.000193315 7.84424 -5.26995 3.11552 
0.007125 0.00046875 4.01233 3.24018e+22 0.000215472 16.2691 -0.914325 3.55293 
0.006375 0.00065625 3.88374 3.03185e+22 0.000201618 19.2907 3.03796 0.432724 
0.007125 0.00065625 4.04492 3.25259e+22 0.000216298 22.8506 -1.25724 3.04835 
0.007875 0.00046875 4.08191 3.17257e+22 0.000210976 21.9144 -4.03563 0.415853 
0.008625 0.00046875 3.78514 2.96976e+22 0.000197489 19.4549 5.88197 1.6766 
0.007875 0.00065625 4.00694 3.22845e+22 0.000214692 26.7899 1.70135 2.83756 
0.008625 0.00065625 3.87155 3.12153e+22 0.000207581 19.8587 -0.933449 -1.9629 
0.009375 0.00046875 3.75865 2.96976e+22 0.000197489 17.9186 1.44716 0.969714 
0.010125 0.00046875 3.78493 2.95044e+22 0.000196205 16.383 6.59348 4.40326 
0.009375 0.00065625 4.09295 2.94907e+22 0.000196113 22.3797 -1.65342 2.85493 
0.010125 0.00065625 3.87151 2.81455e+22 0.000187167 17.7654 0.391788 -0.291878 
0.010875 0.00046875 4.08343 2.75729e+22 0.00018336 24.1555 -2.49945 5.29109 
0.011625 0.00046875 3.8578 2.79592e+22 0.000185929 20.3775 -0.585537 -0.35898 
0.010875 0.00065625 4.18385 2.89733e+22 0.000192672 21.3864 -1.23094 1.56638 
0.011625 0.00065625 3.99181 2.74211e+22 0.000182351 22.6253 -0.242677 5.97974 
0.010875 0.00084375 3.97749 2.79807e+22 0.000186071 22.7348 -0.077854 0.358541 
0.011625 0.00084375 4.036 2.80075e+22 0.00018625 23.2885 0.837189 2.03176 
0.004875 0.00159375 3.89539 3.31062e+22 0.000220156 18.1877 -2.1844 -6.97283 
0.004875 0.00178125 4.01415 3.25568e+22 0.000216503 9.65296 -5.92271 -0.790015 
0.004875 0.00196875 3.95738 3.46978e+22 0.000230741 4.72591 -1.06566 0.465602 
0.004875 0.00215625 0 0 0 0 0 0 
0.005625 0.00215625 0 0 0 0 0 0 
0.006375 0.00215625 0 0 0 0 0 0 
0.007125 0.00215625 0 0 0 0 0 0 
0.007875 0.00215625 0 0 0 0 0 0 
0.008625 0.00215625 0 0 0 0 0 0 
0.009375 0.00215625 0 0 0 0 0 0 
0.010125 0.00215625 0 0 0 0 0 0 
0.010875 0.00215625 0 0 0 0 0 0 
0.011625 0.00215625 0 0 0 0 0 0 
0.012375 0.00215625 0 0 0 0 0 0 
0.013125 0.00215625 0 0 0 0 0 0 
0.013875 0.00215625 0 0 0 0 0 0 
0.014625 0.00215625 0 0 0 0 0 0 
0.015375 0.00215625 0 0 0 0 0 0 
0.016125 0.00215625 0 0 0 0 0 0 
0.016875 0.00215625 0 0 0 0 0 0 
0.017625 0.00215625 0 0 0 0 0 0 
0.0054375 0.00117188 3.95564 3.12139e+22 0.000207572 14.9833 3.60865 0.97488 
0.0058125 0.00117188 4.24827 3.16774e+22 0.000210655 7.70855 -3.60213 4.47233 
0.0054375 0.00126563 4.18271 3.43387e+22 0.000228352 8.61561 -0.273246 -2.65387 
0.0058125 0.00126563 3.90544 3.24787e+22 0.000215983 19.72 -1.90191 -4.81744 
0.0054375 0.00135937 3.86967 3.1038e+22 0.000206403 8.87369 -5.78376 -9.02759 
0.0058125 0.00135937 3.89487 3.34358e+22 0.000222348 14.7434 -5.59456 2.26836 
0.0054375 0.00145312 3.95603 3.22756e+22 0.000214633 13.8164 -8.4483 3.46386 
0.0058125 0.00145312 4.10561 3.15902e+22 0.000210075 8.05058 -4.69308 3.51714 
0.0061875 0.00117188 3.84938 3.32999e+22 0.000221445 21.8576 -2.56802 0.722121 
0.0065625 0.00117188 4.0023 3.27591e+22 0.000217848 15.9259 2.4128 -4.06761 
0.0061875 0.00126563 4.02769 3.3051e+22 0.000219789 18.0423 -4.71472 6.93118 
0.0065625 0.00126563 4.0482 3.22641e+22 0.000214556 16.9384 2.73999 -3.04197 
0.0069375 0.00117188 3.97967 2.92051e+22 0.000194214 21.6062 6.82128 5.40571 
0.0073125 0.00117188 3.84952 2.97459e+22 0.00019781 12.0777 -8.87619 -1.41102 
0.0069375 0.00126563 4.04161 3.00464e+22 0.000199808 23.2224 3.46965 6.96518 
0.0073125 0.00126563 4.16442 2.78287e+22 0.000185061 18.4343 -8.53216 -0.122585 
0.0061875 0.00135937 3.84082 2.95727e+22 0.000196659 13.0739 -7.43745 -0.292899 
0.0065625 0.00135937 3.75945 3.11712e+22 0.000207289 13.1514 0.0809304 -0.40845 
0.0061875 0.00145312 4.17681 3.07802e+22 0.000204688 22.4524 0.934391 0.706237 
0.0065625 0.00145312 4.01331 3.15902e+22 0.000210075 14.6074 -3.26893 -4.38439 
0.0069375 0.00135937 3.80121 2.97059e+22 0.000197544 12.1648 -8.14055 -7.71481 
0.0073125 0.00135937 3.91608 3.19705e+22 0.000212604 6.44338 -7.32249 -2.34978 
0.0069375 0.00145312 3.93465 3.10917e+22 0.00020676 12.587 -3.71078 3.66975 
0.0073125 0.00145312 3.89473 3.08425e+22 0.000205103 10.8029 -0.670559 4.38237 
0.0084375 0.00117188 3.83255 3.01322e+22 0.000200379 25.0571 -4.13148 -6.74574 
0.0088125 0.00117188 3.79556 3.05958e+22 0.000203462 11.3697 -8.46231 -3.36131 
0.0084375 0.00126563 3.82248 3.05471e+22 0.000203138 15.9274 0.287803 4.05742 
0.0088125 0.00126563 4.26444 2.99748e+22 0.000199333 21.2369 0.714368 -5.63012 
0.0084375 0.00135937 3.8774 2.73081e+22 0.000181599 19.1575 -3.93886 -7.59889 
0.0088125 0.00135937 3.62259 2.8174e+22 0.000187357 11.8494 4.42636 0.439372 
0.0084375 0.00145312 3.99515 2.90356e+22 0.000193087 4.1037 1.55171 -2.89359 
0.0088125 0.00145312 4.03513 3.01571e+22 0.000200545 9.36444 0.870793 0.432754 
0.0099375 0.000796875 3.94569 2.99959e+22 0.000199472 23.1178 -5.00122 6.48044 
0.0103125 0.000796875 3.9258 2.64736e+22 0.00017605 20.0124 7.03555 -4.33454 
0.0099375 0.000890625 4.00017 3.20231e+22 0.000212954 18.2974 -2.53927 -1.2203 
0.0103125 0.000890625 3.85507 2.877e+22 0.00019132 22.2717 -9.75703 4.17834 
0.0091875 0.000984375 4.06281 3.0353e+22 0.000201847 23.743 10.33 -0.267555 
0.0095625 0.000984375 4.08563 3.09968e+22 0.000206129 18.7607 -6.46577 -6.66351 
0.0091875 0.00107813 3.9498 3.04009e+22 0.000202166 17.3984 0.077391 -2.87138 
0.0095625 0.00107813 4.04805 2.89733e+22 0.000192672 25.0879 7.4228 5.42582 
0.0091875 0.00117188 3.95079 3.08276e+22 0.000205003 18.0274 8.12004 -0.764059 
0.0095625 0.00117188 3.94876 3.01322e+22 0.000200379 18.3462 -1.50267 4.856 
0.0091875 0.00126563 4.02906 2.99033e+22 0.000198857 15.0391 -1.32718 0.0405512 
0.0095625 0.00126563 4.35199 2.68986e+22 0.000178876 16.1551 8.70273 0.321224 
0.0091875 0.00135937 3.57371 3.02388e+22 0.000201088 18.9889 0.696302 1.09929 
0.0095625 0.00135937 3.81955 3.0372e+22 0.000201974 6.76215 -0.465027 4.64269 
0.0091875 0.00145312 3.94685 2.86617e+22 0.000190601 7.92773 -0.679074 -2.96619 
0.0095625 0.00145312 3.90174 3.15902e+22 0.000210075 15.2699 6.53786 2.1358 
0.0099375 0.00135937 4.15149 3.06384e+22 0.000203745 6.77908 3.85408 0.0966134 
0.0103125 0.00135937 3.86086 3.03054e+22 0.000201531 9.50539 1.68407 2.20411 
0.0099375 0.00145312 3.91258 2.82879e+22 0.000188114 8.55659 -3.25761 0.0114852 
0.0103125 0.00145312 3.96944 2.79763e+22 0.000186043 20.4781 -0.947287 1.394 
0.0106875 0.00135937 4.24623 3.01056e+22 0.000200202 10.2314 3.68055 0.0680284 
0.0110625 0.00135937 4.18189 2.73081e+22 0.000181599 20.1368 6.31398 -0.748142 
0.0106875 0.00145312 3.96026 2.64809e+22 0.000176098 21.2125 -5.56927 1.35 
0.0110625 0.00145312 3.99382 3.09048e+22 0.000205517 18.4473 -4.09391 3.71961 
0.0054375 0.00154688 4.05842 3.14901e+22 0.000209409 13.4557 4.00451 2.76274 
0.0058125 0.00154688 4.03253 3.0261e+22 0.000201235 21.3792 -2.99493 -1.95832 
0.0054375 0.00164063 3.86246 3.30571e+22 0.00021983 8.17504 -3.25016 7.31435 
0.0058125 0.00164063 4.02064 3.16774e+22 0.000210655 5.83819 -2.44326 1.03336 
0.0054375 0.00173438 3.95513 3.25232e+22 0.000216279 14.1313 -1.39463 2.94773 
0.0058125 0.00173438 4.08417 3.26276e+22 0.000216973 10.2721 1.1233 -0.0041165 
0.0054375 0.00182813 3.86129 3.26383e+22 0.000217044 6.38363 1.22365 -5.14635 
0.0058125 0.00182813 3.8921 3.19449e+22 0.000212434 12.0058 0.360439 4.36601 
0.0061875 0.00154688 3.85194 2.98513e+22 0.000198511 16.0862 -2.96334 1.3509 
0.0065625 0.00154688 4.0677 3.10804e+22 0.000206685 7.44526 -1.28417 -1.00753 
0.0061875 0.00164063 3.87845 3.23949e+22 0.000215426 16.0252 -4.05906 4.28779 
0.0065625 0.00164063 3.72091 3.17878e+22 0.000211389 3.26934 5.73631 -2.59461 
0.0069375 0.00154688 4.08374 2.97342e+22 0.000197732 13.758 -1.1972 -0.353111 
0.0073125 0.00154688 4.18108 2.92659e+22 0.000194618 6.5 -2.20069 3.41321 
0.0069375 0.00164063 3.69534 3.24501e+22 0.000215793 6.86821 1.54638 5.50437 
0.0073125 0.00164063 4.03081 3.09048e+22 0.000205517 10.2051 2.37582 -1.74508 
0.0061875 0.00173438 3.93467 3.03306e+22 0.000201698 9.81488 -3.85199 0.00506314 
0.0065625 0.00173438 4.105 3.21577e+22 0.000213849 12.0893 0.83024 -0.422152 
0.0061875 0.00182813 4.13823 3.16477e+22 0.000210457 7.22913 2.43776 3.59846 
0.0065625 0.00182813 3.99831 3.26383e+22 0.000217044 3.2252 -4.39432 -2.12956 
0.0069375 0.00173438 4.02135 2.98607e+22 0.000198574 6.84251 -4.10109 -1.1256 
0.0073125 0.00173438 3.9896 3.07482e+22 0.000204476 5.26204 1.03931 -0.539968 
0.0069375 0.00182813 4.05721 3.05581e+22 0.000203212 9.91316 4.87105 -1.40373 
0.0073125 0.00182813 3.80247 3.00629e+22 0.000199918 5.25468 -3.64089 4.03608 
0.0076875 0.00154688 4.10721 2.88562e+22 0.000191894 15.4349 -0.678925 0.0873458 
0.0080625 0.00154688 3.93218 3.23681e+22 0.000215248 18.9915 4.63653 -4.23043 
0.0076875 0.00164063 4.05648 2.947e+22 0.000195975 6.35991 -8.51263 -1.41261 
0.0080625 0.00164063 3.88265 3.00218e+22 0.000199645 8.30522 1.30069 -6.95475 
0.0084375 0.00154688 3.969 2.94415e+22 0.000195786 17.5561 -1.52108 -0.251233 
0.0088125 0.00154688 4.0158 2.94415e+22 0.000195786 11.0426 -0.0766665 1.98799 
0.0084375 0.00164063 4.17204 2.84766e+22 0.000189369 11.9033 -0.964347 1.04863 
0.0088125 0.00164063 4.04097 2.76488e+22 0.000183864 7.6731 -3.84474 0.13952 
0.0076875 0.00173438 3.90641 3.14269e+22 0.000208989 10.205 4.80577 -10.194 
0.0080625 0.00173438 4.1717 3.08526e+22 0.00020517 7.34056 2.65832 -0.0498399 
0.0076875 0.00182813 4.1668 2.92209e+22 0.000194319 4.94603 -1.30147 7.80499 
0.0080625 0.00182813 4.09185 3.03105e+22 0.000201565 10.6765 4.36155 -1.63104 
0.0084375 0.00173438 4.13803 3.07482e+22 0.000204476 5.36542 -4.8832 -0.758071 
0.0088125 0.00173438 3.91866 3.0435e+22 0.000202393 5.55512 -1.87655 -0.82993 
0.0084375 0.00182813 4.05237 3.10039e+22 0.000206176 13.5985 -0.352844 0.766414 
0.0088125 0.00182813 4.14783 2.89237e+22 0.000192343 4.79318 -1.97449 -1.41509 
0.0061875 0.00192187 4.14652 3.29306e+22 0.000218988 11.2304 -0.813898 -5.16256 
0.0065625 0.00192187 4.05429 2.91146e+22 0.000193612 3.78974 -2.39408 1.59686 
0.0061875 0.00201563 4.17255 3.09352e+22 0.000205719 5.01541 5.9144 5.18831 
0.0065625 0.00201563 3.79135 3.18934e+22 0.000212091 8.93123 0.69856 6.11809 
0.0076875 0.00192187 3.93179 3.08577e+22 0.000205204 8.83259 0.607785 -3.34829 
0.0080625 0.00192187 4.01593 2.83608e+22 0.0001886 -2.05426 3.02245 5.7843 
0.0076875 0.00201563 4.37523 3.17565e+22 0.000211181 2.87942 2.49667 -1.5039 
0.0080625 0.00201563 3.81674 2.86083e+22 0.000190245 3.59265 -18.6379 -3.42499 
0.0091875 0.00154688 4.15636 3.0378e+22 0.000202014 5.69115 -3.5285 0.964771 
0.0095625 0.00154688 3.80404 3.07292e+22 0.000204349 8.83536 -1.57314 -2.90607 
0.0091875 0.00164063 3.642 3.10704e+22 0.000206618 17.0226 6.47498 -2.23898 
0.0095625 0.00164063 4.00256 2.89181e+22 0.000192305 11.8471 -0.827753 -7.33397 
0.0099375 0.00154688 4.08631 2.96757e+22 0.000197343 8.99344 -1.06671 0.132947 
0.0103125 0.00154688 3.83391 3.0378e+22 0.000202014 15.1049 0.121453 -3.01518 
0.0099375 0.00164063 3.83385 2.96355e+22 0.000197076 11.1791 1.6465 3.37105 
0.0103125 0.00164063 3.92807 2.70417e+22 0.000179827 6.69232 2.26575 2.04231 
0.0091875 0.00173438 4.06492 3.02784e+22 0.000201351 4.20163 1.59925 -0.840271 
0.0095625 0.00173438 4.05737 2.866e+22 0.000190589 3.86092 10.1915 -5.68192 
0.0091875 0.00182813 3.97126 2.87256e+22 0.000191025 10.5082 4.40573 3.76111 
0.0095625 0.00182813 3.9829 2.89237e+22 0.000192343 4.49822 -5.2315 -3.19038 
0.0099375 0.00173438 4.03931 2.89211e+22 0.000192325 7.36369 4.34529 2.14295 
0.0103125 0.00173438 3.97578 2.93909e+22 0.00019545 8.3088 3.87297 -3.563 
0.0099375 0.00182813 4.30053 2.90723e+22 0.000193331 6.96666 -6.21788 -10.2463 
0.0103125 0.00182813 3.99403 3.04591e+22 0.000202553 2.45608 1.09068 1.16005 
0.0106875 0.00154688 4.07198 2.69832e+22 0.000179438 16.3862 2.59549 0.130119 
0.0110625 0.00154688 3.99869 2.85636e+22 0.000189948 15.2255 -2.37636 1.27766 
0.0106875 0.00164063 4.1488 2.86422e+22 0.00019047 12.0701 -3.0569 3.56879 
0.0110625 0.00164063 3.87253 2.69865e+22 0.00017946 7.09207 -0.664028 0.408464 
0.0114375 0.00154688 3.91037 2.94415e+22 0.000195786 10.6365 7.62132 -5.12931 
0.0118125 0.00154688 3.95895 2.77441e+22 0.000184498 9.45074 2.47319 -1.29116 
0.0114375 0.00164063 4.10762 2.71521e+22 0.000180561 14.5261 5.37395 2.09711 
0.0118125 0.00164063 3.97749 2.67658e+22 0.000177992 8.52993 -6.31596 -2.33786 
0.0106875 0.00173438 3.9884 2.88167e+22 0.000191631 10.6447 -6.08911 -2.09531 
0.0110625 0.00173438 3.82165 2.52668e+22 0.000168024 10.4895 1.75728 -0.7537 
0.0106875 0.00182813 3.98512 3.0261e+22 0.000201235 1.57436 3.15325 -7.23108 
0.0110625 0.00182813 3.91389 2.80323e+22 0.000186415 13.082 1.08757 -3.33691 
0.0114375 0.00173438 3.95605 2.7616e+22 0.000183646 11.2049 1.48117 -5.12634 
0.0118125 0.00173438 4.17441 2.65197e+22 0.000176356 3.76104 0.453663 2.66395 
0.0114375 0.00182813 3.78014 2.60017e+22 0.000172911 9.53656 -0.777279 0.125568 
0.0118125 0.00182813 3.93893 2.72398e+22 0.000181145 8.67862 2.66873 5.27662 
0.0121875 0.00173438 3.9532 2.78248e+22 0.000185035 10.4209 0.605023 3.19211 
0.0125625 0.00173438 3.82999 2.60498e+22 0.000173231 5.3183 0.954546 -0.332696 
0.0121875 0.00182813 4.00179 2.63979e+22 0.000175546 11.7444 1.32897 2.28552 
0.0125625 0.00182813 4.04414 2.66455e+22 0.000177193 13.2864 -1.44259 5.05814 
0.0129375 0.00173438 4.15147 2.57366e+22 0.000171149 11.122 -5.7149 -1.57529 
0.0133125 0.00173438 4.12859 2.43793e+22 0.000162122 6.91576 2.27898 -6.20245 
0.0129375 0.00182813 4.01178 2.64474e+22 0.000175875 5.12201 1.91285 2.35056 
0.0133125 0.00182813 4.016 2.46644e+22 0.000164018 3.78208 -2.24125 3.78535 
0.0144375 0.00173438 4.24016 2.26566e+22 0.000150666 8.11126 -3.19486 -2.1219 
0.0148125 0.00173438 3.75779 2.52146e+22 0.000167677 9.55768 -1.34885 1.55143 
0.0144375 0.00182813 3.95543 2.64474e+22 0.000175875 7.60968 -7.76283 -1.54321 
0.0148125 0.00182813 3.8221 2.54073e+22 0.000168959 20.524 4.32404 -1.21605 
0.0121875 0.00192187 3.9072 2.74657e+22 0.000182647 6.97843 2.60569 -5.34602 
0.0125625 0.00192187 3.87678 2.63351e+22 0.000175128 3.71541 -4.91409 -2.45998 
0.0121875 0.00201563 3.58801 2.47756e+22 0.000164758 1.50072 4.1939 7.09457 
0.0125625 0.00201563 3.91615 2.27223e+22 0.000151104 1.06094 -9.27414 -0.443007 
0.0151875 0.00154688 4.03691 2.59296e+22 0.000172432 17.9069 2.68112 -2.49615 
0.0155625 0.00154688 3.96575 2.27689e+22 0.000151413 10.6061 3.20002 -3.35016 
0.0151875 0.00164063 4.19108 2.64347e+22 0.000175791 11.3786 -0.424818 0.669439 
0.0155625 0.00164063 3.85546 2.53309e+22 0.000168451 16.6742 1.2056 -1.17364 
0.0151875 0.00173438 3.92914 2.49014e+22 0.000165594 12.2353 1.26746 8.58511 
0.0155625 0.00173438 3.87068 2.52146e+22 0.000167677 8.29744 -4.99985 2.66615 
0.0151875 0.00182813 3.71347 2.44168e+22 0.000162372 4.8444 -1.67557 3.66759 
0.0155625 0.00182813 3.91056 2.38225e+22 0.000158419 6.66724 3.10992 12.0971 
0.0159375 0.00173438 4.16892 2.39095e+22 0.000158998 14.3479 -2.78368 -2.85714 
0.0163125 0.00173438 4.11176 2.41705e+22 0.000160734 6.91419 3.48484 7.7519 
0.0159375 0.00182813 4.19923 2.46149e+22 0.000163689 8.31231 -4.98399 -5.45576 
0.0163125 0.00182813 4.1775 2.51102e+22 0.000166983 13.3459 2.65337 -6.54803 
0.0166875 0.00154688 4.03025 2.41151e+22 0.000160366 19.2148 8.72683 -5.48594 
0.0170625 0.00154688 4.15633 2.37639e+22 0.00015803 19.2649 1.1755 1.97908 
0.0166875 0.00164063 3.81285 2.31786e+22 0.000154138 12.0939 -4.46977 2.12439 
0.0170625 0.00164063 3.92055 2.54965e+22 0.000169552 15.8533 -3.17028 0.402343 
0.0166875 0.00173438 3.95901 2.12993e+22 0.00014164 17.2891 5.96462 0.693434 
0.0170625 0.00173438 3.7519 2.41183e+22 0.000160387 4.41232 -2.80483 0.247992 
0.0166875 0.00182813 3.78798 2.31291e+22 0.000153808 11.072 0.253871 -10.1587 
0.0170625 0.00182813 3.88529 2.4813e+22 0.000165007 6.52233 0.547974 2.09997 
0.0174375 0.00173438 3.93575 2.37529e+22 0.000157957 18.1054 -10.9501 -0.654484 
0.0178125 0.00173438 4.23544 2.22389e+22 0.000147889 8.46833 -3.24391 -1.96973 
0.0174375 0.00182813 3.99226 2.24852e+22 0.000149527 8.99172 -0.877932 4.15338 
0.0178125 0.00182813 4.01805 2.32777e+22 0.000154797 3.8689 1.19662 -2.01014 
0.0054375 0.000984375 3.76225 3.30203e+22 0.000219585 9.27354 -8.82252 3.75735 
0.0058125 0.000984375 3.78757 3.21005e+22 0.000213469 19.8201 1.92885 -0.531653 
0.0054375 0.00107813 3.71406 2.97291e+22 0.000197698 16.7197 0.970099 -2.68255 
0.0058125 0.00107813 3.76071 3.4264e+22 0.000227856 0.784044 4.87339 0.18995 
0.0061875 0.000984375 4.16009 3.37562e+22 0.000224478 21.0611 0.126573 2.36382 
0.0065625 0.000984375 3.86189 3.15487e+22 0.000209799 15.6177 -7.91549 8.85165 
0.0061875 0.00107813 3.921 3.13247e+22 0.000208309 12.797 6.904 -0.585484 
0.0065625 0.00107813 4.32311 2.83014e+22 0.000188205 24.7465 -5.13292 9.69144 
0.0076875 0.00117188 4.06457 2.88187e+22 0.000191645 11.2531 -4.91433 1.67556 
0.0080625 0.00117188 3.6657 3.01322e+22 0.000200379 15.2093 1.97739 -11.1128 
0.0076875 0.00126563 3.85797 3.1191e+22 0.00020742 10.0648 4.19645 -2.40217 
0.0080625 0.00126563 4.08085 3.2121e+22 0.000213605 18.926 12.9499 2.20339 
0.0106875 0.00117188 3.80953 3.14457e+22 0.000209114 20.4495 0.227017 7.53769 
0.0110625 0.00117188 4.36491 2.88187e+22 0.000191645 13.9154 -9.78313 0.531305 
0.0106875 0.00126563 3.73066 2.94025e+22 0.000195527 11.417 -1.49773 -2.8378 
0.0110625 0.00126563 4.09262 2.68271e+22 0.0001784 18.5867 4.82523 0.123034 
0.0114375 0.00117188 3.57763 2.68872e+22 0.0001788 11.7905 1.78355 -4.79221 
0.0118125 0.00117188 3.85382 2.68099e+22 0.000178286 16.4633 -9.73115 -0.741162 
0.0114375 0.00126563 4.26645 2.9474e+22 0.000196002 11.8441 2.59637 0.84095 
0.0118125 0.00126563 3.84843 2.95456e+22 0.000196478 10.6851 3.34091 5.67792 
0.0114375 0.00135937 3.94152 3.13045e+22 0.000208175 11.1307 2.42339 1.54184 
0.0118125 0.00135937 3.7696 2.77744e+22 0.0001847 19.4887 6.53713 7.20269 
0.0114375 0.00145312 4.08872 3.04064e+22 0.000202202 18.274 0.61461 0.518097 
0.0118125 0.00145312 3.85374 2.5484e+22 0.000169469 25.6009 -0.289377 -2.86417 
0.0054375 0.00192187 4.01372 3.33075e+22 0.000221495 0.721173 2.38414 -2.17316 
0.0058125 0.00192187 3.86515 3.31662e+22 0.000220555 5.50098 -7.55924 1.26705 
0.0054375 0.00201563 3.81793 3.51786e+22 0.000233938 0.442129 -3.9427 -1.48779 
0.0058125 0.00201563 4.04448 3.819e+22 0.000253963 -2.85896 0.510141 -9.67378 
0.0069375 0.00192187 4.09912 3.09519e+22 0.00020583 2.87195 -2.5993 -2.52451 
0.0073125 0.00192187 4.05089 3.08577e+22 0.000205204 8.78168 5.01964 3.72905 
0.0069375 0.00201563 3.98615 2.91558e+22 0.000193886 -4.66567 3.39216 5.19098 
0.0073125 0.00201563 3.86425 2.98402e+22 0.000198437 -0.265442 0.012784 -7.63309 
0.0091875 0.00192187 3.97652 3.02453e+22 0.000201131 0.94972 -3.35689 -3.36716 
0.0095625 0.00192187 3.85504 2.98213e+22 0.000198311 9.60273 -6.25313 3.43847 
0.0091875 0.00201563 4.57101 2.69657e+22 0.000179322 -4.48633 3.26277 -1.24733 
0.0095625 0.00201563 3.8077 2.98402e+22 0.000198437 2.62382 0.644199 2.79266 
0.0121875 0.00154688 4.01019 2.74514e+22 0.000182552 12.6671 -1.46484 -4.68742 
0.0125625 0.00154688 4.10175 2.69247e+22 0.000179049 20.3962 2.47414 -0.352149 
0.0121875 0.00164063 4.28182 2.55517e+22 0.000169919 15.684 -4.47131 6.05213 
0.0125625 0.00164063 4.26167 2.73177e+22 0.000181662 15.4063 3.52106 -4.32387 
0.0129375 0.00154688 3.80876 2.55784e+22 0.000170097 15.5962 -6.462 -9.49181 
0.0133125 0.00154688 3.93004 2.54614e+22 0.000169318 10.5732 -2.87491 -2.58607 
0.0129375 0.00164063 3.80164 2.67106e+22 0.000177625 17.3535 -1.26313 -1.61318 
0.0133125 0.00164063 3.74979 2.53861e+22 0.000168818 10.3907 4.15958 -6.98965 
0.0136875 0.00154688 4.19935 2.6632e+22 0.000177103 9.79689 -0.153107 0.326913 
0.0140625 0.00154688 3.90123 2.54028e+22 0.000168929 14.6741 5.21136 -1.21843 
0.0136875 0.00164063 3.97715 2.78695e+22 0.000185332 10.4492 -3.49806 4.38414 
0.0140625 0.00164063 3.87072 2.74832e+22 0.000182763 13.7266 0.574402 -5.14982 
0.0144375 0.00154688 3.73452 2.4759e+22 0.000164647 14.3422 7.43911 2.60391 
0.0148125 0.00154688 3.96402 2.51102e+22 0.000166983 14.7623 -7.94547 3.94879 
0.0144375 0.00164063 3.90898 2.5662e+22 0.000170653 10.8414 -0.748239 -0.768528 
0.0148125 0.00164063 3.95835 2.35649e+22 0.000156707 7.13357 7.89551 -2.49729 
0.0136875 0.00173438 4.19916 2.76682e+22 0.000183993 8.32604 -0.559386 3.9325 
0.0140625 0.00173438 3.90466 2.65197e+22 0.000176356 11.0839 3.8857 -0.410815 
0.0136875 0.00182813 3.87019 2.64474e+22 0.000175875 2.20399 -1.31916 3.71337 
0.0140625 0.00182813 4.01185 2.33767e+22 0.000155455 8.40842 0.300208 1.92343 
0.0136875 0.00192187 4.04614 2.68062e+22 0.000178261 1.76317 -5.70018 0.984744 
0.0140625 0.00192187 4.02016 2.50631e+22 0.000166669 3.96918 4.16855 0.543307 
0.0136875 0.00201563 3.93727 1.99847e+22 0.000132898 7.97324 4.93348 1.13758 
0.0140625 0.00201563 4.35071 2.45018e+22 0.000162937 8.37789 -1.07303 0.687692 
0.0174375 0.00154688 3.80411 2.33542e+22 0.000155306 23.9279 -0.910311 -9.15972 
0.0178125 0.00154688 3.94031 2.14812e+22 0.00014285 13.8865 -10.1301 1.45902 
0.0174375 0.00164063 3.79656 2.14678e+22 0.000142761 11.6302 -0.940276 -9.30568 
0.0178125 0.00164063 3.91438 2.28475e+22 0.000151936 7.41529 -4.40934 -0.0101248 
0.0069375 0.000984375 3.84345 3.42161e+22 0.000227537 20.8493 3.12583 -7.36624 
0.0073125 0.000984375 3.93548 3.0261e+22 0.000201235 20.0472 2.86112 -0.436687 
0.0069375 0.00107813 3.92349 2.74616e+22 0.00018262 18.9994 -5.05236 -0.817107 
0.0073125 0.00107813 4.07005 3.22485e+22 0.000214453 18.7356 1.28882 4.96607 
0.0076875 0.000796875 3.74839 3.24955e+22 0.000216095 18.8281 3.80292 -7.46256 
0.0080625 0.000796875 3.8895 3.03367e+22 0.000201739 20.7562 -1.23128 -7.14782 
0.0076875 0.000890625 3.79474 2.91766e+22 0.000194024 20.0494 -2.98854 5.90845 
0.0080625 0.000890625 4.01193 3.15148e+22 0.000209573 16.3739 2.40051 7.61121 
0.0084375 0.000984375 4.07107 2.75016e+22 0.000182886 22.1723 -0.0614373 1.32526 
0.0088125 0.000984375 3.83101 2.75016e+22 0.000182886 10.7405 0.95649 -2.48654 
0.0084375 0.00107813 4.08791 3.04009e+22 0.000202166 13.0302 4.66414 11.8799 
0.0088125 0.00107813 4.17333 2.85534e+22 0.00018988 16.7159 11.7419 4.0876 
0.0076875 0.00135937 3.89215 3.37688e+22 0.000224563 8.72536 5.10158 1.56286 
0.0080625 0.00135937 3.85136 3.11712e+22 0.000207289 19.2 4.08463 -0.943187 
0.0076875 0.00145312 3.91385 3.07179e+22 0.000204274 22.4497 1.20092 2.2558 
0.0080625 0.00145312 3.83911 2.94094e+22 0.000195573 11.8343 -4.35631 -3.34742 
0.0099375 0.000984375 4.15804 2.75016e+22 0.000182886 15.6531 -2.02137 2.46461 
0.0103125 0.000984375 3.74365 2.49262e+22 0.000165759 21.091 -7.93165 4.22799 
0.0099375 0.00107813 3.79531 2.67898e+22 0.000178152 15.6207 -1.34721 4.16367 
0.0103125 0.00107813 3.81546 2.74616e+22 0.00018262 23.0493 1.96753 -1.1379 
0.0106875 0.000984375 3.7056 2.63059e+22 0.000174934 20.8346 8.01251 -3.17211 
0.0110625 0.000984375 4.40623 2.95251e+22 0.000196342 26.9823 -3.59754 -4.16983 
0.0106875 0.00107813 4.23268 3.15767e+22 0.000209985 19.1353 -2.95628 -1.52411 
0.0110625 0.00107813 4.07698 2.53621e+22 0.000168658 21.6529 5.68725 7.17211 
0.0099375 0.00192187 3.88125 2.99155e+22 0.000198938 8.10112 -0.307839 -0.209627 
0.0103125 0.00192187 4.05941 2.94915e+22 0.000196118 5.09628 -0.323256 -6.45327 
0.0099375 0.00201563 3.76946 2.62813e+22 0.00017477 0.490622 -8.24991 -2.09819 
0.0103125 0.00201563 4.03187 2.76501e+22 0.000183873 8.02768 5.24116 2.63772 
0.0129375 0.00192187 4.1503 2.65235e+22 0.000176381 4.45326 3.90743 -3.55772 
0.0133125 0.00192187 3.93357 2.64764e+22 0.000176068 2.39824 0.340423 0.978362 
0.0129375 0.00201563 3.76694 2.75132e+22 0.000182963 -11.0984 -4.97675 -6.39636 
0.0133125 0.00201563 4.11877 2.32699e+22 0.000154745 1.37997 7.01823 9.54947 
0.0076875 0.000984375 4.2153 2.79615e+22 0.000185944 16.6718 -8.01852 12.8516 
0.0080625 0.000984375 3.99816 3.15487e+22 0.000209799 16.8292 4.07826 -3.3909 
0.0076875 0.00107813 3.76275 2.98131e+22 0.000198257 23.6676 -2.99479 1.59901 
0.0080625 0.00107813 4.02527 2.82174e+22 0.000187646 28.7215 10.9216 3.05936 
0.0084375 0.00192187 3.79681 2.96328e+22 0.000197058 -1.26975 1.05942 0.644343 
0.0088125 0.00192187 4.17894 3.10462e+22 0.000206457 4.35225 -0.128302 -0.921989 
0.0084375 0.00201563 4.08968 2.76501e+22 0.000183873 1.75513 -7.66084 -7.05545 
0.0088125 0.00201563 4.05964 2.80607e+22 0.000186604 -6.63727 -7.46846 -7.56183 
0.0159375 0.00154688 3.87779 2.69832e+22 0.000179438 17.0231 -2.56525 1.61536 
0.0163125 0.00154688 4.0654 2.28274e+22 0.000151802 13.3186 6.7935 7.9155 
0.0159375 0.00164063 4.0644 2.37305e+22 0.000157808 14.4094 -2.56951 -2.15378 
0.0163125 0.00164063 3.76961 2.42824e+22 0.000161478 14.4937 3.43335 4.52677 
0.0159375 0.00192187 4.158 2.28488e+22 0.000151945 4.14792 2.67041 4.06393 
0.0163125 0.00192187 3.77464 2.27546e+22 0.000151318 7.37882 5.62023 -2.0335 
0.0159375 0.00201563 4.49217 2.3133e+22 0.000153834 -0.385363 -2.42476 -6.49426 
0.0163125 0.00201563 3.82303 2.25855e+22 0.000150193 15.9934 7.74881 -11.7837 
0.0174375 0.00192187 4.054 2.22835e+22 0.000148185 5.97276 -4.87332 -0.916505 
0.0178125 0.00192187 4.11281 2.25191e+22 0.000149752 6.89099 3.48597 4.13375 
0.0174375 0.00201563 4.31517 2.38174e+22 0.000158386 11.065 -1.37188 -13.7635 
0.0178125 0.00201563 4.30031 2.3133e+22 0.000153834 12.5173 7.40734 -2.79377 
0.0084375 0.000796875 3.94778 2.95414e+22 0.00019645 11.7389 -10.4251 -11.4659 
0.0088125 0.000796875 3.80288 3.0564e+22 0.00020325 16.1756 -8.2456 -7.04023 
0.0084375 0.000890625 3.98796 2.99899e+22 0.000199433 22.9563 3.24426 -3.68879 
0.0088125 0.000890625 3.90327 3.22264e+22 0.000214306 21.7921 -1.73123 0.610064 
0.0114375 0.000984375 3.84929 2.81455e+22 0.000187167 21.2524 -1.33035 -4.86297 
0.0118125 0.000984375 3.99338 2.72257e+22 0.000181051 22.3067 -10.782 1.95954 
0.0114375 0.00107813 3.80782 2.83854e+22 0.000188763 24.6864 8.24233 1.76675 
0.0118125 0.00107813 3.91306 2.64539e+22 0.000175918 13.2974 -10.0209 -7.9095 
0.0099375 0.00117188 4.17627 2.8896e+22 0.000192158 19.1528 1.51676 -1.05783 
0.0103125 0.00117188 3.61959 2.82007e+22 0.000187534 20.0003 -7.35086 1.61621 
0.0099375 0.00126563 4.15532 2.86871e+22 0.000190769 18.4373 0.481467 -13.3087 
0.0103125 0.00126563 4.13687 2.8401e+22 0.000188866 17.7766 -3.08049 -9.85099 
0.0106875 0.00192187 3.93938 2.64293e+22 0.000175755 0.132813 4.03607 0.733787 
0.0110625 0.00192187 3.86648 2.69004e+22 0.000178888 5.12253 -5.33937 -0.0863423 
0.0106875 0.00201563 3.95478 2.86083e+22 0.000190245 8.46057 -4.74877 -0.685573 
0.0110625 0.00201563 4.11001 2.47756e+22 0.000164758 -0.694933 -11.6205 12.1676 
0.0114375 0.00192187 4.03134 2.93031e+22 0.000194865 3.67496 -1.44459 5.12653 
0.0118125 0.00192187 3.89242 2.62408e+22 0.000174502 2.44791 -1.43521 2.62006 
0.0114375 0.00201563 4.22116 2.66919e+22 0.000177501 10.3813 6.45453 6.56625 
0.0118125 0.00201563 4.04327 2.69657e+22 0.000179322 1.24645 -12.3938 0.599881 
0.0151875 0.00192187 3.94041 2.31786e+22 0.000154138 6.12018 1.101 4.44629 
0.0155625 0.00192187 3.62003 2.42622e+22 0.000161343 9.23796 2.09028 -6.11328 
0.0151875 0.00201563 4.18508 2.34068e+22 0.000155655 3.57115 1.23083 5.6366 
0.0155625 0.00201563 4.04749 2.60075e+22 0.00017295 3.17396 -0.823977 0.192385 
0.0091875 0.000796875 3.60844 2.74962e+22 0.00018285 18.9015 1.50493 12.7345 
0.0095625 0.000796875 3.75965 2.89733e+22 0.000192672 16.4482 -1.62569 7.82303 
0.0091875 0.000890625 4.12642 2.77533e+22 0.00018456 19.9083 4.61771 -0.21752 
0.0095625 0.000890625 3.58 2.71434e+22 0.000180503 16.3378 -6.86961 5.37745 
0.0144375 0.00192187 4.30764 2.64293e+22 0.000175755 10.8459 -3.91175 1.49167 
0.0148125 0.00192187 4.04318 2.51573e+22 0.000167296 7.45575 2.40344 0.982117 
0.0144375 0.00201563 4.19733 2.62813e+22 0.00017477 2.06142 7.24415 -4.73178 
0.0148125 0.00201563 3.95365 2.36805e+22 0.000157475 14.3659 3.61378 0.7428 
0.0069375 0.000796875 3.70388 3.02231e+22 0.000200984 20.407 -8.32203 0.681378 
0.0073125 0.000796875 3.58369 2.69281e+22 0.000179072 18.0859 -3.82409 4.79645 
0.0069375 0.000890625 3.84114 3.18198e+22 0.000211601 23.3484 -4.3894 -5.84736 