ITEM: TIMESTEP
500000
ITEM: NUMBER OF CELLS
6889
ITEM: BOX BOUNDS oo ao pp
0 0.12
0 0.03
-0.1 0.1
ITEM: CELLS xc yc f_out[1] f_out[2] f_out[3] f_out[4] f_out[5] f_out[6] 
0.003 0.00675 0 0 0 0 0 0 
0.003 0.01275 0 0 0 0 0 0 
0.009 0.00675 0 0 0 0 0 0 
0.009 0.01275 0 0 0 0 0 0 
0.003 0.00825 0 0 0 0 0 0 
0.003 0.01425 0 0 0 0 0 0 
0.009 0.00825 0 0 0 0 0 0 
0.009 0.01425 0 0 0 0 0 0 
0.015 0.00825 0 0 0 0 0 0 
0.015 0.01425 0 0 0 0 0 0 
0.003 0.00375 0 0 0 0 0 0 
0.003 0.00975 0 0 0 0 0 0 
0.009 0.00375 0 0 0 0 0 0 
0.009 0.00975 0 0 0 0 0 0 
0.003 0.00525 0 0 0 0 0 0 
0.003 0.01125 0 0 0 0 0 0 
0.009 0.00525 0 0 0 0 0 0 
0.009 0.01125 0 0 0 0 0 0 
0.015 0.00525 0 0 0 0 0 0 
0.015 0.01125 0 0 0 0 0 0 
0.0015 0.000375 0 0 0 0 0 0 
0.0015 0.001125 0 0 0 0 0 0 
0.0015 0.001875 0 0 0 0 0 0 
0.0015 0.002625 0 0 0 0 0 0 
0.0045 0.002625 0 0 0 0 0 0 
0.0075 0.002625 0 0 0 0 0 0 
0.0105 0.002625 0 0 0 0 0 0 
0.0135 0.002625 0 0 0 0 0 0 
0.0165 0.002625 0 0 0 0 0 0 
0.00375 0.0001875 0 0 0 0 0 0 
0.00525 0.0001875 4.12492 1.25174e+24 0.00832404 26.2919 -3.81266 5.91905 
0.00375 0.0005625 0 0 0 0 0 0 
0.00375 0.0009375 0 0 0 0 0 0 
0.00375 0.0013125 0 0 0 0 0 0 
0.00675 0.0001875 4.04405 1.2706e+24 0.00844948 19.6019 1.19877 -0.120153 
0.00825 0.0001875 4.1923 1.22533e+24 0.00814843 24.2133 -2.75124 -1.35179 
0.00975 0.0001875 4.09743 1.21326e+24 0.00806815 30.2134 0.113005 -0.634781 
0.01125 0.0001875 3.84201 1.14988e+24 0.00764668 32.9191 0.563025 -0.195676 
0.00375 0.0016875 0 0 0 0 0 0 
0.00375 0.0020625 0 0 0 0 0 0 
0.004875 0.00046875 3.9907 1.44142e+24 0.00958545 20.4317 2.9175 -0.484036 
0.005625 0.00046875 3.8948 1.3883e+24 0.00923221 18.7256 -3.9868 4.51216 
0.004875 0.00065625 3.78786 1.23654e+24 0.00822298 20.7325 -10.4044 -2.54284 
0.005625 0.00065625 4.12323 1.32449e+24 0.00880788 18.8451 -7.23971 2.75384 
0.004875 0.00084375 4.0508 1.32794e+24 0.00883081 16.1813 -1.63131 -0.18675 
0.004875 0.00103125 3.83931 1.35648e+24 0.00902057 12.2133 -5.63869 0.801163 
0.004875 0.00121875 3.7788 1.39852e+24 0.00930014 15.3369 -1.9051 -1.70474 
0.004875 0.00140625 3.64639 1.39313e+24 0.00926432 18.4412 -5.48471 0.0799306 
0.006375 0.00046875 3.81973 1.29173e+24 0.00858997 21.484 -4.08651 -1.84589 
0.007125 0.00046875 3.95452 1.23619e+24 0.00822068 25.7085 0.805652 -3.96838 
0.006375 0.00065625 3.79452 1.29862e+24 0.00863585 20.1987 -4.16589 1.76147 
0.007125 0.00065625 3.68494 1.21584e+24 0.00808535 25.1938 -2.8727 1.58578 
0.007875 0.00046875 3.99928 1.27e+24 0.00844547 24.0892 -0.567877 0.101584 
0.008625 0.00046875 3.97017 1.11547e+24 0.00741788 27.0096 5.71662 2.77616 
0.007875 0.00065625 3.77868 1.25551e+24 0.00834913 28.846 -1.70564 1.73186 
0.008625 0.00065625 3.97675 1.24344e+24 0.00826885 16.6791 4.33352 1.62429 
0.009375 0.00046875 3.96632 1.16617e+24 0.00775506 32.6325 -1.20475 -6.40292 
0.010125 0.00046875 3.9903 1.21205e+24 0.00806012 33.5055 -7.06066 8.70167 
0.009375 0.00065625 4.05599 1.19687e+24 0.0079592 25.5801 -3.64129 -1.77782 
0.010125 0.00065625 3.8328 1.11754e+24 0.00743164 25.2699 3.96071 3.12303 
0.010875 0.00046875 4.12355 1.15652e+24 0.00769083 33.4248 0.819093 1.35339 
0.011625 0.00046875 4.08978 1.1034e+24 0.0073376 26.2184 8.09555 -10.2177 
0.010875 0.00065625 3.88964 1.03476e+24 0.00688115 25.6848 5.75684 7.86698 
0.011625 0.00065625 3.94727 1.09685e+24 0.00729402 30.5974 0.974902 4.81895 
0.006375 0.00084375 3.7708 1.2488e+24 0.00830453 25.8289 -0.20274 4.58927 
0.007875 0.00084375 3.75456 1.28502e+24 0.00854537 24.3351 -0.171295 -1.19763 
0.008625 0.00084375 3.90725 1.22868e+24 0.00817073 29.0174 5.10443 0.754007 
0.007875 0.00103125 3.92622 1.25331e+24 0.00833454 28.543 -2.42861 2.12504 
0.009375 0.00084375 3.95215 1.18442e+24 0.00787637 30.0325 1.71257 -4.84585 
0.010125 0.00103125 3.84296 1.16003e+24 0.00771419 27.1065 0.118462 0.85333 
0.010875 0.00084375 3.91969 1.08516e+24 0.00721629 23.7002 -0.0795121 -2.54306 
0.011625 0.00084375 4.05714 1.23136e+24 0.00818857 27.5489 -4.06171 1.06468 
0.010875 0.00103125 3.88354 1.09089e+24 0.0072544 26.1059 -0.696133 2.21868 
0.011625 0.00103125 3.90685 1.04918e+24 0.00697707 23.6401 -1.8494 -2.49556 
0.004875 0.00159375 4.07124 1.47423e+24 0.00980362 13.4582 -7.27017 6.96784 
0.004875 0.00178125 3.87171 1.47726e+24 0.00982375 12.5454 -0.160758 1.88261 
0.004875 0.00196875 4.13046 1.37214e+24 0.00912474 5.70575 0.408443 10.4305 
0.004875 0.00215625 0 0 0 0 0 0 
0.005625 0.00215625 0 0 0 0 0 0 
0.006375 0.00215625 0 0 0 0 0 0 
0.007125 0.00215625 0 0 0 0 0 0 
0.007875 0.00215625 0 0 0 0 0 0 
0.008625 0.00215625 0 0 0 0 0 0 
0.009375 0.00215625 0 0 0 0 0 0 
0.010125 0.00215625 0 0 0 0 0 0 
0.010875 0.00215625 0 0 0 0 0 0 
0.011625 0.00215625 0 0 0 0 0 0 
0.012375 0.00215625 0 0 0 0 0 0 
0.013125 0.00215625 0 0 0 0 0 0 
0.014625 0.00196875 4.13384 1.04356e+24 0.0069397 6.29122 -0.346695 1.38467 
0.013875 0.00215625 0 0 0 0 0 0 
0.014625 0.00215625 0 0 0 0 0 0 
0.015375 0.00215625 0 0 0 0 0 0 
0.016125 0.00215625 0 0 0 0 0 0 
0.016875 0.00215625 0 0 0 0 0 0 
0.017625 0.00215625 0 0 0 0 0 0 
0.0054375 0.00135937 3.84374 1.33877e+24 0.00890279 14.4999 -4.22349 -8.79357 
0.0058125 0.00135937 3.90891 1.30213e+24 0.00865918 24.072 -7.55389 -0.325902 
0.0054375 0.00145312 3.82361 1.32716e+24 0.00882563 9.5895 -5.07959 2.16423 
0.0058125 0.00145312 4.09639 1.29601e+24 0.00861846 20.5811 -3.97774 5.78493 
0.0069375 0.00135937 3.65974 1.2655e+24 0.00841557 26.521 -4.15548 5.61805 
0.0073125 0.00135937 3.90416 1.2655e+24 0.00841557 16.0566 -5.78565 -5.17349 
0.0069375 0.00145312 3.76705 1.25551e+24 0.00834913 23.5194 2.61823 2.12957 
0.0073125 0.00145312 4.02273 1.16828e+24 0.00776904 22.9624 -3.08911 -3.04328 
0.0076875 0.00135937 3.80881 1.27549e+24 0.00848201 20.7691 4.4353 -3.41367 
0.0080625 0.00135937 3.65913 1.21555e+24 0.00808338 13.2071 -1.87498 -3.66482 
0.0076875 0.00145312 4.33528 1.24928e+24 0.0083077 23.8252 -2.06937 9.0091 
0.0080625 0.00145312 4.10916 1.24928e+24 0.0083077 21.1339 2.06098 1.4095 
0.0084375 0.00135937 4.10487 1.18557e+24 0.00788406 19.4446 4.96301 -0.882989 
0.0088125 0.00135937 4.08493 1.15227e+24 0.0076626 23.3415 -7.39923 -2.38041 
0.0084375 0.00145312 4.0293 1.18074e+24 0.00785191 11.0434 11.4698 -2.1699 
0.0088125 0.00145312 3.84769 1.26485e+24 0.00841128 17.7682 -2.68266 -0.423813 
0.0091875 0.00135937 3.76634 1.06568e+24 0.0070868 17.5529 -12.8329 -2.33346 
0.0095625 0.00135937 4.04562 1.20222e+24 0.00799479 19.2752 -6.24029 -8.8132 
0.0091875 0.00145312 3.91684 1.19008e+24 0.00791407 11.3555 3.64322 8.62433 
0.0095625 0.00145312 3.9345 1.18385e+24 0.00787263 13.8043 2.7747 -2.12642 
0.0114375 0.00135937 3.97594 1.13895e+24 0.00757401 22.5932 -2.15007 2.2884 
0.0118125 0.00135937 4.17635 1.01573e+24 0.0067546 15.6236 -0.280637 1.55018 
0.0114375 0.00145312 3.68082 1.10908e+24 0.00737541 17.0331 2.27641 -5.98928 
0.0118125 0.00145312 3.93145 1.06235e+24 0.00706465 17.9587 1.42797 0.815911 
0.0054375 0.00154688 4.01961 1.29941e+24 0.00864106 15.5341 -2.5025 -3.14222 
0.0058125 0.00154688 3.72394 1.22624e+24 0.00815451 13.0279 -5.48208 3.44626 
0.0054375 0.00164063 3.78765 1.33829e+24 0.00889962 13.9707 -1.23524 8.35696 
0.0058125 0.00164063 3.98388 1.32173e+24 0.00878953 12.7305 -4.88776 5.99877 
0.0061875 0.00154688 3.83761 1.37257e+24 0.00912761 15.6872 -5.32908 -1.5829 
0.0065625 0.00154688 4.10044 1.27599e+24 0.00848536 25.9835 -4.58099 -7.33458 
0.0061875 0.00164063 3.9898 1.25275e+24 0.00833078 21.8307 -6.46294 5.57863 
0.0065625 0.00164063 4.05676 1.23343e+24 0.00820233 13.7166 1.46231 1.53571 
0.0069375 0.00173438 3.84183 1.27117e+24 0.00845328 12.2107 -0.920909 -0.849775 
0.0073125 0.00173438 3.96439 1.19286e+24 0.00793254 9.47061 3.15566 -3.40598 
0.0069375 0.00182813 3.85867 1.25056e+24 0.0083162 4.14421 1.64942 0.641507 
0.0073125 0.00182813 3.75217 1.26541e+24 0.008415 9.99892 -4.9388 -4.61811 
0.0076875 0.00154688 3.82786 1.30819e+24 0.00869944 14.6533 1.54913 3.57363 
0.0080625 0.00154688 3.75684 1.18527e+24 0.00788205 11.7586 1.07689 2.23097 
0.0076875 0.00164063 4.04616 1.13686e+24 0.00756009 14.4663 -2.46584 -5.63284 
0.0080625 0.00164063 4.13891 1.21412e+24 0.00807389 11.6562 1.50744 2.83324 
0.0084375 0.00154688 3.88125 1.26429e+24 0.00840752 17.7679 5.07588 1.71021 
0.0088125 0.00154688 3.99211 1.15308e+24 0.00766797 16.4605 -0.339992 8.88851 
0.0084375 0.00164063 4.04967 1.3107e+24 0.00871613 9.85711 -1.98903 3.11035 
0.0088125 0.00164063 4.18626 1.15617e+24 0.00768854 22.9447 9.86761 3.03799 
0.0076875 0.00173438 4.13401 1.21375e+24 0.00807141 15.3723 2.54911 -4.44913 
0.0080625 0.00173438 3.92603 1.1511e+24 0.00765482 13.9682 -1.70845 0.721405 
0.0076875 0.00182813 3.86126 1.3298e+24 0.00884316 6.55389 1.08281 -2.70175 
0.0080625 0.00182813 3.92872 1.20103e+24 0.00798684 11.5554 -0.94143 6.23708 
0.0091875 0.00154688 4.02845 1.19698e+24 0.00795989 15.4513 2.52087 6.33358 
0.0095625 0.00154688 4.02292 1.20283e+24 0.00799882 21.5028 -3.9968 -6.61236 
0.0091875 0.00164063 3.71394 1.15617e+24 0.00768854 10.4681 1.62472 1.43213 
0.0095625 0.00164063 3.98807 1.07615e+24 0.0071564 10.422 3.20075 -0.31182 
0.0099375 0.00154688 3.74422 1.03016e+24 0.00685057 6.98984 1.14573 -2.6175 
0.0103125 0.00154688 4.02763 1.1882e+24 0.00790151 8.48211 -5.69615 1.77302 
0.0099375 0.00164063 4.05691 1.13962e+24 0.00757844 18.4744 3.49036 -6.01741 
0.0103125 0.00164063 3.9329 1.14513e+24 0.00761514 14.3084 -3.05705 -0.720869 
0.0099375 0.00173438 3.92177 1.16154e+24 0.00772425 9.90349 2.20669 12.9095 
0.0103125 0.00173438 3.64272 1.08585e+24 0.00722087 13.1148 1.38925 4.74728 
0.0099375 0.00182813 3.92617 1.20846e+24 0.00803624 7.27355 -0.61124 1.46535 
0.0103125 0.00182813 4.05892 1.17627e+24 0.00782216 10.1619 3.12917 3.98876 
0.0106875 0.00154688 3.79628 1.08869e+24 0.00723981 24.4197 0.863903 4.74451 
0.0110625 0.00154688 3.75168 1.20576e+24 0.00801828 16.6112 -2.76175 1.48247 
0.0106875 0.00164063 3.81734 1.17549e+24 0.00781699 3.31447 -4.95467 -5.66428 
0.0110625 0.00164063 4.19125 1.14789e+24 0.00763349 13.5759 1.10524 0.169782 
0.0114375 0.00154688 3.99815 1.07699e+24 0.00716196 8.11766 -3.58958 0.606339 
0.0118125 0.00154688 3.81154 1.06235e+24 0.00706465 15.6922 10.9364 7.69686 
0.0114375 0.00164063 4.03623 1.06511e+24 0.007083 15.211 1.16318 2.98866 
0.0118125 0.00164063 4.13562 1.09547e+24 0.00728485 17.2141 -1.92425 4.68154 
0.0106875 0.00173438 3.83685 1.10673e+24 0.00735973 13.7643 -7.4465 -1.08224 
0.0110625 0.00173438 3.63379 1.09368e+24 0.00727294 11.1939 1.66802 1.1979 
0.0106875 0.00182813 3.96621 1.1936e+24 0.00793744 13.9291 8.05114 7.1888 
0.0110625 0.00182813 3.8367 1.08959e+24 0.00724579 9.58296 -1.4911 2.9117 
0.0121875 0.00154688 3.99991 1.11503e+24 0.00741496 19.5958 -2.40052 -2.86388 
0.0125625 0.00154688 4.09317 1.09162e+24 0.00725927 18.8745 -8.44547 4.10928 
0.0121875 0.00164063 3.93243 1.06787e+24 0.00710135 7.78529 -3.24098 -9.03757 
0.0125625 0.00164063 4.26647 1.03752e+24 0.0068995 12.778 7.03151 0.833674 
0.0129375 0.00154688 3.89914 9.33583e+23 0.00620833 28.067 -1.02788 0.948292 
0.0133125 0.00154688 3.88436 1.0126e+24 0.0067338 20.3617 -5.82114 -1.15935 
0.0129375 0.00164063 3.7737 1.13686e+24 0.00756009 16.0848 -4.96982 -5.43071 
0.0133125 0.00164063 4.14085 1.14789e+24 0.00763349 14.4567 1.97541 1.58311 
0.0121875 0.00173438 4.10373 1.12239e+24 0.00746388 10.1332 -0.894485 2.56548 
0.0125625 0.00173438 3.91981 1.02059e+24 0.00678692 13.7821 -5.33371 -8.20342 
0.0121875 0.00182813 4.15062 1.06483e+24 0.00708112 24.0696 -1.77521 5.75513 
0.0125625 0.00182813 3.9786 1.0054e+24 0.00668589 5.75751 6.10868 6.34336 
0.0129375 0.00173438 4.14543 1.0232e+24 0.00680428 13.1441 -6.31206 -6.73311 
0.0133125 0.00173438 4.23558 1.03103e+24 0.00685636 21.6314 -5.54427 -8.70314 
0.0129375 0.00182813 3.99756 1.05492e+24 0.00701525 11.6567 -7.40659 -1.33032 
0.0133125 0.00182813 3.73558 1.08464e+24 0.00721286 10.2788 0.747143 2.18618 
0.0144375 0.00154688 4.02672 1.03894e+24 0.00690896 14.9999 -2.95743 -2.86238 
0.0148125 0.00154688 4.11447 1.02431e+24 0.00681165 16.8974 -0.87971 2.24456 
0.0144375 0.00164063 4.26686 9.9061e+23 0.00658756 14.8491 -2.38522 2.1337 
0.0148125 0.00164063 4.05039 8.82995e+23 0.00587192 14.5318 5.35672 -2.57682 
0.0144375 0.00173438 3.77569 9.91878e+23 0.00659599 11.6466 -0.164848 0.807877 
0.0148125 0.00173438 3.99038 1.02581e+24 0.00682164 10.4492 3.58847 3.72492 
0.0144375 0.00182813 4.0363 9.70728e+23 0.00645534 12.889 3.13106 4.30172 
0.0148125 0.00182813 3.89388 9.68252e+23 0.00643888 6.029 0.329648 -0.0411168 
0.0174375 0.00154688 3.82387 8.63345e+23 0.00574124 9.45268 1.99768 -3.06934 
0.0178125 0.00154688 3.95711 9.62849e+23 0.00640295 26.5843 0.542758 0.648418 
0.0174375 0.00164063 3.9709 9.29904e+23 0.00618386 15.2711 -5.49029 5.0296 
0.0178125 0.00164063 4.38313 9.10589e+23 0.00605541 14.04 -4.96715 0.229872 
0.0174375 0.00173438 3.89896 9.10961e+23 0.00605789 9.55965 3.44266 6.22652 
0.0178125 0.00173438 3.99912 9.39674e+23 0.00624883 12.0212 -2.04916 -10.2692 
0.0174375 0.00182813 4.01679 8.34529e+23 0.00554962 2.78645 12.6512 4.08229 
0.0178125 0.00182813 4.09769 8.49387e+23 0.00564843 5.46432 0.56589 4.09285 
0.0054375 0.00117188 3.90863 1.53365e+24 0.0101988 23.9677 3.6766 1.34868 
0.0058125 0.00117188 3.85954 1.36754e+24 0.00909413 15.1894 -1.62653 -6.22034 
0.0054375 0.00126563 4.07007 1.36639e+24 0.00908652 12.5361 -2.15979 1.98855 
0.0058125 0.00126563 4.02478 1.19112e+24 0.00792097 18.9549 -4.30939 4.62985 
0.0069375 0.000984375 3.81053 1.23711e+24 0.0082268 20.3819 -2.84545 5.42036 
0.0073125 0.000984375 3.99084 1.19572e+24 0.00795155 17.3157 1.67728 -11.3965 
0.0069375 0.00107813 3.72815 1.33109e+24 0.00885175 24.9779 -10.3757 -2.52364 
0.0073125 0.00107813 4.18336 1.10434e+24 0.00734388 19.3862 3.88878 1.60642 
0.0061875 0.00135937 3.96637 1.42535e+24 0.00947859 13.9901 -5.66189 0.199234 
0.0065625 0.00135937 3.83268 1.38539e+24 0.00921283 16.1649 1.93654 2.91687 
0.0061875 0.00145312 3.95175 1.28355e+24 0.00853559 24.6054 -6.278 3.62112 
0.0065625 0.00145312 3.79947 1.25862e+24 0.00836985 7.98887 0.13411 3.80627 
0.0054375 0.00173438 4.13184 1.37297e+24 0.00913024 12.651 -0.678211 -1.97739 
0.0058125 0.00173438 3.88176 1.25029e+24 0.00831442 9.83254 -3.59309 7.5703 
0.0054375 0.00182813 3.87954 1.36942e+24 0.00910665 8.12348 -4.99741 1.05485 
0.0058125 0.00182813 4.18422 1.26294e+24 0.00839853 12.0647 -2.1116 3.41663 
0.0061875 0.00192187 3.9337 1.30733e+24 0.00869375 6.92347 4.21482 -2.04279 
0.0065625 0.00192187 4.082 1.31911e+24 0.00877207 8.2579 -2.64571 -3.57746 
0.0061875 0.00201563 3.98497 1.32775e+24 0.00882955 11.3871 -6.10227 0.58361 
0.0065625 0.00201563 4.23342 1.24562e+24 0.00828339 2.5571 9.98719 -1.92803 
0.0091875 0.00173438 3.86818 1.18503e+24 0.00788047 13.0754 -3.30199 -7.74064 
0.0095625 0.00173438 4.12365 1.0989e+24 0.00730766 14.957 -0.570454 3.47236 
0.0091875 0.00182813 3.87455 1.20846e+24 0.00803624 8.36873 2.15899 5.01131 
0.0095625 0.00182813 4.05459 1.23075e+24 0.00818445 5.67119 -4.73466 -0.596437 
0.0114375 0.00173438 3.96631 1.09629e+24 0.0072903 13.9158 -4.61341 -5.05736 
0.0118125 0.00173438 4.07266 1.08846e+24 0.00723823 11.6492 -0.66608 -1.88193 
0.0114375 0.00182813 3.95303 1.10693e+24 0.00736107 13.5885 2.72245 2.36716 
0.0118125 0.00182813 4.3224 1.02768e+24 0.0068341 9.08335 -2.45399 2.15588 
0.0136875 0.00173438 3.79747 1.0754e+24 0.00715144 12.8656 -0.0984548 -5.20755 
0.0140625 0.00173438 4.11819 1.01015e+24 0.00671749 8.04676 -4.59719 -4.63426 
0.0136875 0.00182813 3.97513 1.10197e+24 0.00732813 6.36914 -0.324435 -1.473 
0.0140625 0.00182813 4.04311 1.02521e+24 0.00681763 14.4081 -1.93406 -2.65342 
0.0121875 0.00192187 3.70417 1.10711e+24 0.00736227 1.40413 -11.074 -0.251042 
0.0125625 0.00192187 3.98277 1.0812e+24 0.00718997 6.99799 0.315877 1.02907 
0.0121875 0.00201563 4.49073 9.71859e+23 0.00646287 7.4404 -2.89794 0.112368 
0.0125625 0.00201563 3.80761 1.06768e+24 0.00710005 6.53891 -0.935105 -1.12328 
0.0151875 0.00173438 3.96056 1.01015e+24 0.00671749 17.335 -10.5715 0.0619566 
0.0155625 0.00173438 4.04397 9.50115e+23 0.00631826 12.3748 -3.79334 10.3014 
0.0151875 0.00182813 4.31018 9.80634e+23 0.00652122 4.95638 -2.43473 1.22357 
0.0155625 0.00182813 4.16617 9.41012e+23 0.00625773 17.9277 -4.33509 -4.49788 
0.0159375 0.00173438 4.00713 9.73606e+23 0.00647448 18.5981 -1.27451 5.66635 
0.0163125 0.00173438 4.08757 8.953e+23 0.00595375 18.6878 6.7054 -6.87771 
0.0159375 0.00182813 4.00081 9.28631e+23 0.00617539 16.998 -6.10888 5.72199 
0.0163125 0.00182813 4.11047 8.39482e+23 0.00558256 11.8157 1.24603 -8.38583 
0.0061875 0.00117188 4.10405 1.24392e+24 0.00827206 9.74611 -0.498479 -4.373 
0.0065625 0.00117188 3.97764 1.25937e+24 0.00837482 16.1121 4.66693 -3.19771 
0.0061875 0.00126563 3.91939 1.27339e+24 0.00846807 18.3903 3.13758 0.67329 
0.0065625 0.00126563 3.56614 1.31274e+24 0.00872972 13.7622 2.20004 -3.09365 
0.0054375 0.00192187 4.1198 1.2296e+24 0.00817682 8.09493 -6.27493 9.08713 
0.0058125 0.00192187 4.09969 1.25315e+24 0.00833347 11.591 2.60774 2.56419 
0.0054375 0.00201563 3.73361 1.32091e+24 0.00878403 12.2323 12.4157 -2.79158 
0.0058125 0.00201563 3.87615 1.27984e+24 0.00851096 5.21325 11.7671 4.95139 
0.0069375 0.00154688 3.88492 1.23502e+24 0.0082129 14.2927 1.15968 5.46748 
0.0073125 0.00154688 4.06997 1.13259e+24 0.00753173 7.52359 -4.15315 2.04976 
0.0069375 0.00164063 4.00699 1.21964e+24 0.00811058 9.64849 4.06314 -1.62318 
0.0073125 0.00164063 3.93412 1.15617e+24 0.00768854 15.6163 -6.41995 -9.71329 
0.0084375 0.00173438 3.71088 1.26073e+24 0.00838385 9.95363 -2.31774 -0.380042 
0.0088125 0.00173438 3.97561 1.17198e+24 0.00779368 7.52133 2.26957 5.32963 
0.0084375 0.00182813 3.80639 1.12921e+24 0.00750928 4.96425 -6.79098 -1.17379 
0.0088125 0.00182813 4.02181 1.1936e+24 0.00793744 21.2166 -3.48517 -0.122798 
0.0114375 0.00192187 3.93694 1.10946e+24 0.00737794 -0.648201 2.02763 -2.20049 
0.0118125 0.00192187 3.76356 1.14244e+24 0.00759724 5.98406 -1.45266 -1.38356 
0.0114375 0.00201563 4.18565 1.0403e+24 0.006918 5.60833 3.16771 -11.9624 
0.0118125 0.00201563 3.68853 1.08136e+24 0.00719108 2.48772 -11.765 -5.3983 
0.0166875 0.00154688 4.05575 8.60418e+23 0.00572178 17.4008 -5.88428 4.03021 
0.0170625 0.00154688 3.74436 8.77978e+23 0.00583855 25.4686 -6.83508 8.26655 
0.0166875 0.00164063 3.60397 9.79573e+23 0.00651416 17.0719 -1.8856 1.25613 
0.0170625 0.00164063 3.89794 9.63016e+23 0.00640406 20.9986 1.75517 9.31472 
0.0166875 0.00173438 3.88414 9.63166e+23 0.00640505 16.3548 3.78682 5.80992 
0.0170625 0.00173438 3.93976 8.56147e+23 0.00569338 17.9581 -2.07017 11.1816 
0.0166875 0.00182813 4.07415 9.85587e+23 0.00655415 13.8863 0.598981 -0.0250651 
0.0170625 0.00182813 3.85813 9.80634e+23 0.00652122 1.31992 -3.22345 -1.44886 
0.0076875 0.00117188 3.94978 1.36368e+24 0.00906844 17.7827 -0.348812 -1.01764 
0.0080625 0.00117188 4.06998 1.14734e+24 0.00762982 18.8276 -0.452564 -5.58734 
0.0076875 0.00126563 3.95326 1.18755e+24 0.00789718 9.50245 -0.475642 -7.12053 
0.0080625 0.00126563 3.99448 1.31632e+24 0.00875351 24.0524 -3.09565 5.8528 
0.0091875 0.000984375 4.02582 1.16353e+24 0.00773747 18.9183 -3.23301 0.780563 
0.0095625 0.000984375 4.33692 1.21872e+24 0.00810447 29.2175 2.35977 3.93312 
0.0091875 0.00107813 3.90895 1.23871e+24 0.00823744 16.3138 -2.49033 -5.1893 
0.0095625 0.00107813 3.98239 1.14213e+24 0.0075952 27.6967 2.12849 1.91252 
0.0114375 0.00117188 3.99722 1.18984e+24 0.00791241 27.5874 4.31388 -4.59149 
0.0118125 0.00117188 3.95485 1.00827e+24 0.00670499 21.1826 1.11739 4.19779 
0.0114375 0.00126563 4.29441 1.06593e+24 0.00708844 18.6078 10.4065 3.97178 
0.0118125 0.00126563 4.07081 1.1017e+24 0.0073263 17.2229 -4.50405 4.32871 
0.0061875 0.00173438 3.95281 1.23985e+24 0.00824498 13.7378 -7.07265 -1.56198 
0.0065625 0.00173438 4.19129 1.35731e+24 0.00902609 10.8758 -0.225304 7.05538 
0.0061875 0.00182813 4.14353 1.22084e+24 0.00811858 6.46315 -7.71092 -7.55601 
0.0065625 0.00182813 3.65117 1.30256e+24 0.00866202 1.39717 0.920627 -0.635006 
0.0069375 0.00192187 3.87764 1.23195e+24 0.00819249 7.43227 0.147388 0.779195 
0.0073125 0.00192187 4.06082 1.32146e+24 0.00878774 2.24986 -4.77992 1.46991 
0.0069375 0.00201563 4.07123 1.10874e+24 0.00737313 -2.99904 -8.49222 -2.66184 
0.0073125 0.00201563 3.67763 1.23878e+24 0.00823788 3.75086 3.5147 -1.88383 
0.0076875 0.00192187 3.9967 1.19662e+24 0.00795752 4.25304 2.6839 0.267263 
0.0080625 0.00192187 3.94825 1.2508e+24 0.0083178 -5.90543 -0.38705 -3.12518 
0.0076875 0.00201563 3.75651 1.30722e+24 0.00869301 4.46181 -2.11898 6.39841 
0.0080625 0.00201563 4.22314 1.23878e+24 0.00823788 -1.22221 7.17613 6.87495 
0.0084375 0.000984375 3.83935 1.26011e+24 0.00837971 17.2705 -8.41194 7.31901 
0.0088125 0.000984375 3.86527 1.12674e+24 0.00749281 23.8104 5.60305 7.26133 
0.0084375 0.00107813 3.79905 1.2933e+24 0.00860044 25.4221 -0.752339 -1.98657 
0.0088125 0.00107813 3.81345 1.12114e+24 0.00745558 12.308 6.47928 -0.254319 
0.0084375 0.00117188 3.74705 1.24006e+24 0.00824637 15.1616 2.97702 -0.149969 
0.0088125 0.00117188 3.5791 1.21301e+24 0.00806655 20.4958 1.59054 -0.711697 
0.0084375 0.00126563 3.98059 1.28055e+24 0.00851564 23.4434 0.374172 -0.527548 
0.0088125 0.00126563 4.08434 1.19112e+24 0.00792097 19.0832 9.20377 3.45039 
0.0099375 0.00117188 4.37466 1.10098e+24 0.00732155 25.3973 6.08671 -0.811772 
0.0103125 0.00117188 3.66407 1.21301e+24 0.00806655 23.7144 2.58868 6.34027 
0.0099375 0.00126563 4.09901 1.10885e+24 0.00737388 23.2495 2.26885 -3.16169 
0.0103125 0.00126563 3.84585 1.09812e+24 0.00730252 19.8865 -11.7974 3.38978 
0.0099375 0.00192187 3.97297 1.21546e+24 0.00808284 -0.35168 3.41466 3.02577 
0.0103125 0.00192187 4.1851 1.28613e+24 0.00855277 7.01581 -10.3994 3.58955 
0.0099375 0.00201563 4.45926 1.28669e+24 0.00855647 14.7785 2.12212 6.60315 
0.0103125 0.00201563 3.79466 1.17718e+24 0.00782826 11.1267 -1.57107 -1.03907 
0.0151875 0.00192187 3.94238 9.89331e+23 0.00657905 11.8186 3.16854 7.25493 
0.0155625 0.00192187 4.18032 9.89331e+23 0.00657905 6.86224 5.07775 -3.92898 
0.0151875 0.00201563 3.91965 9.10263e+23 0.00605325 -0.0492823 -5.11177 -6.18139 
0.0155625 0.00201563 3.74259 9.58171e+23 0.00637184 2.60414 2.70328 1.55114 
0.0166875 0.00192187 3.96376 1.01289e+24 0.0067357 11.9675 -2.1693 2.41687 
0.0170625 0.00192187 3.84203 9.30443e+23 0.00618744 -0.166327 -4.35257 -0.136154 
0.0166875 0.00201563 3.98548 7.39161e+23 0.00491542 12.2711 -5.54498 4.84828 
0.0170625 0.00201563 3.86269 9.37639e+23 0.0062353 11.0248 8.46219 -4.66363 
0.0106875 0.00135937 3.91297 1.13895e+24 0.00757401 18.8543 4.13867 4.96851 
0.0110625 0.00135937 4.03172 1.18224e+24 0.00786191 15.4932 -1.14799 -3.71304 
0.0106875 0.00145312 3.94543 1.18385e+24 0.00787263 15.8451 -2.26107 3.70054 
0.0110625 0.00145312 3.71392 1.0717e+24 0.0071268 16.0879 -6.0805 -6.43407 
0.0106875 0.00192187 3.97186 1.18013e+24 0.00784787 -1.35905 0.2302 -1.95433 
0.0110625 0.00192187 4.08767 1.11182e+24 0.0073936 1.50824 1.13174 -5.09709 
0.0106875 0.00201563 3.81821 9.30795e+23 0.00618979 5.95126 -4.86846 -2.5097 
0.0110625 0.00201563 4.00492 1.13612e+24 0.00755518 1.28899 -8.63307 -3.31904 
0.0159375 0.00154688 3.77838 1.0565e+24 0.00702573 19.789 -3.43013 -0.652542 
0.0163125 0.00154688 4.11811 9.56996e+23 0.00636402 13.8935 0.96879 0.951235 
0.0159375 0.00164063 3.75668 1.04304e+24 0.0069362 10.6717 -16.839 4.89406 
0.0163125 0.00164063 3.88268 9.98888e+23 0.00664261 8.03795 -5.16618 -0.611395 
0.0151875 0.00154688 3.93264 1.04187e+24 0.00692842 17.609 -6.17276 -8.71297 
0.0155625 0.00154688 3.98438 9.01391e+23 0.00599425 24.7054 -2.61801 -0.619817 
0.0151875 0.00164063 3.92408 9.79573e+23 0.00651416 17.3806 -5.91547 -0.420142 
0.0155625 0.00164063 3.74604 9.85091e+23 0.00655086 11.7855 8.99944 -3.69819 
0.0174375 0.00192187 3.89567 8.95109e+23 0.00595248 7.04632 -2.67766 0.64771 
0.0178125 0.00192187 3.82646 8.50354e+23 0.00565485 14.0907 1.60224 -5.62611 
0.0174375 0.00201563 3.57336 9.78703e+23 0.00650838 11.8328 -2.61356 -2.08076 
0.0178125 0.00201563 3.68774 8.62354e+23 0.00573465 -6.0349 -3.1173 -11.0367 
0.0069375 0.00117188 4.1395 1.31732e+24 0.00876017 20.3834 -0.771179 0.424583 
0.0073125 0.00117188 3.84887 1.29028e+24 0.00858034 15.6243 7.32614 5.75546 
0.0069375 0.00126563 3.73548 1.29485e+24 0.00861079 28.8692 2.61673 0.524489 
0.0073125 0.00126563 4.00554 1.30201e+24 0.00865836 21.1784 6.94673 2.55005 
0.0091875 0.00117188 4.29711 1.2246e+24 0.00814361 18.0336 2.44095 -6.39287 
0.0095625 0.00117188 3.93426 1.0894e+24 0.00724448 21.6996 -1.04603 3.01941 
0.0091875 0.00126563 3.81719 1.17324e+24 0.00780204 24.0386 -4.87345 2.59948 
0.0095625 0.00126563 4.18871 1.23047e+24 0.00818262 20.9788 -1.88789 3.9507 
0.0136875 0.00154688 3.76494 1.02723e+24 0.00683111 23.2145 8.42261 6.67866 
0.0140625 0.00154688 4.11828 9.48216e+23 0.00630564 12.5383 1.47734 -11.0704 
0.0136875 0.00164063 4.25911 9.57498e+23 0.00636736 13.9724 -0.232395 4.99271 
0.0140625 0.00164063 3.99672 1.10374e+24 0.0073399 16.4963 2.81328 0.0893695 
0.0099375 0.000796875 3.93806 1.18166e+24 0.00785801 23.8496 -4.84138 3.34172 
0.0103125 0.000796875 4.16011 1.11916e+24 0.00744244 20.2061 -0.489744 -2.77144 
0.0099375 0.000890625 4.1073 1.32159e+24 0.00878856 26.0042 10.6559 -2.62549 
0.0103125 0.000890625 3.84797 1.08269e+24 0.00719986 20.613 0.191292 4.766 
0.0084375 0.00192187 3.79441 1.22253e+24 0.00812983 6.7091 9.5406 -9.31289 
0.0088125 0.00192187 4.5135 1.16835e+24 0.00776955 2.37015 -13.5927 1.5173 
0.0084375 0.00201563 4.09062 1.25931e+24 0.00837442 3.56763 8.97505 -8.1476 
0.0088125 0.00201563 3.84759 1.17034e+24 0.00778275 2.92229 -10.8415 -4.77947 
0.0091875 0.00192187 3.79175 1.19426e+24 0.00794186 3.99048 -4.726 0.854843 
0.0095625 0.00192187 3.94268 1.19898e+24 0.00797319 6.80692 -0.944513 4.74662 
0.0091875 0.00201563 4.43698 1.12927e+24 0.00750967 4.70138 8.08876 11.0282 
0.0095625 0.00201563 4.02894 1.13612e+24 0.00755518 -6.89549 -2.80878 8.88738 
0.0159375 0.00192187 3.88583 9.96398e+23 0.00662605 5.83066 -3.74325 -3.29662 
0.0163125 0.00192187 4.23286 9.28087e+23 0.00617178 9.68212 5.06231 2.33162 
0.0159375 0.00201563 3.70519 1.17034e+24 0.00778275 -0.198855 -4.48728 10.0224 
0.0163125 0.00201563 4.01066 9.65015e+23 0.00641735 -7.07833 4.9123 -5.5095 
0.0136875 0.00192187 3.93017 1.02938e+24 0.00684535 11.4634 -3.5334 1.07062 
0.0140625 0.00192187 3.90634 1.04586e+24 0.006955 8.13337 0.838241 3.11468 
0.0136875 0.00201563 3.91859 8.8973e+23 0.00591671 3.81664 -0.498261 4.116 
0.0140625 0.00201563 4.0226 1.01292e+24 0.00673594 14.4156 -5.15507 8.30407 
0.0069375 0.000796875 3.79636 1.21006e+24 0.0080469 18.4976 -5.00886 0.510015 
0.0073125 0.000796875 4.02883 1.28391e+24 0.00853803 25.4845 -3.01279 0.398646 
0.0069375 0.000890625 3.8251 1.24534e+24 0.00828153 21.0597 -0.620558 -4.21068 
0.0073125 0.000890625 4.16237 1.25043e+24 0.00831533 31.9209 2.43038 -0.880714 
0.0054375 0.000984375 3.82011 1.2969e+24 0.00862438 18.0904 -1.46561 0.265033 
0.0058125 0.000984375 3.81912 1.37508e+24 0.00914429 18.309 -4.24563 9.9971 
0.0054375 0.00107813 3.81589 1.45706e+24 0.00968946 22.439 -0.244341 -6.84631 
0.0058125 0.00107813 4.12217 1.15053e+24 0.00765104 10.4758 -2.00629 -4.07919 
0.0061875 0.000984375 4.04637 1.34289e+24 0.00893021 25.4147 -3.82952 0.230847 
0.0065625 0.000984375 3.95452 1.3107e+24 0.00871613 26.2483 1.53619 -1.04312 
0.0061875 0.00107813 3.68567 1.33949e+24 0.0089076 22.8654 6.98239 -3.50271 
0.0065625 0.00107813 3.9891 1.21772e+24 0.00809782 25.7105 0.160397 0.311198 
0.0106875 0.00117188 3.44158 1.2246e+24 0.00814361 25.0731 -6.14852 8.4302 
0.0110625 0.00117188 4.09492 1.13189e+24 0.00752706 22.6817 -0.12662 6.69128 
0.0106875 0.00126563 3.86521 1.21974e+24 0.00811126 30.1775 5.40787 2.89119 
0.0110625 0.00126563 4.18156 1.17682e+24 0.00782582 26.2138 2.12583 -8.04804 
0.0099375 0.00135937 3.63214 1.22554e+24 0.00814982 23.9572 7.28826 3.31446 
0.0103125 0.00135937 3.80291 1.10898e+24 0.0073747 19.4125 -2.57378 -2.12808 
0.0099375 0.00145312 3.74231 1.15893e+24 0.00770689 15.277 0.625803 1.96163 
0.0103125 0.00145312 3.89305 1.25551e+24 0.00834913 10.4263 3.63059 0.0333164 
0.0129375 0.00192187 3.94612 1.10004e+24 0.00731528 19.8439 2.83496 -3.42542 
0.0133125 0.00192187 3.98029 9.77554e+23 0.00650073 2.56175 -2.55699 -0.679465 
0.0129375 0.00201563 3.85251 1.14296e+24 0.00760069 8.80195 12.0918 -8.86167 
0.0133125 0.00201563 3.6347 1.06083e+24 0.00705454 -6.45837 1.68756 -13.8826 
0.0054375 0.000796875 3.83802 1.30664e+24 0.00868914 19.3472 1.8924 9.02862 
0.0058125 0.000796875 4.0314 1.32936e+24 0.00884026 31.2141 -9.02047 -4.58592 
0.0054375 0.000890625 4.01123 1.23009e+24 0.00818012 18.7692 -11.1708 7.49664 
0.0058125 0.000890625 3.59504 1.31142e+24 0.00872096 17.336 -0.194529 -0.962115 
0.009 0.01875 0 0 0 0 0 0 
0.009 0.02475 0 0 0 0 0 0 
0.003 0.01875 0 0 0 0 0 0 
0.003 0.02475 0 0 0 0 0 0 
0.003 0.02025 0 0 0 0 0 0 
0.003 0.02625 0 0 0 0 0 0 
0.009 0.02025 0 0 0 0 0 0 
0.009 0.02625 0 0 0 0 0 0 
0.015 0.02025 0 0 0 0 0 0 
0.015 0.02625 0 0 0 0 0 0 
0.003 0.01575 0 0 0 0 0 0 
0.003 0.02175 0 0 0 0 0 0 
0.003 0.02775 0 0 0 0 0 0 
0.009 0.01575 0 0 0 0 0 0 
0.009 0.02175 0 0 0 0 0 0 
0.009 0.02775 0 0 0 0 0 0 
0.003 0.01725 0 0 0 0 0 0 
0.003 0.02325 0 0 0 0 0 0 
0.003 0.02925 0 0 0 0 0 0 
0.009 0.01725 0 0 0 0 0 0 
0.009 0.02325 0 0 0 0 0 0 
0.009 0.02925 0 0 0 0 0 0 
0.015 0.01725 0 0 0 0 0 0 
0.015 0.02325 0 0 0 0 0 0 
0.015 0.02925 0 0 0 0 0 0 
0.015 0.00675 0 0 0 0 0 0 
0.015 0.01275 0 0 0 0 0 0 
0.027 0.01125 0 0 0 0 0 0 
0.021 0.00675 0 0 0 0 0 0 
0.021 0.01275 0 0 0 0 0 0 
0.027 0.01275 0 0 0 0 0 0 
0.021 0.00825 0 0 0 0 0 0 
0.021 0.01425 0 0 0 0 0 0 
0.027 0.00825 0 0 0 0 0 0 
0.027 0.01425 0 0 0 0 0 0 
0.015 0.00375 0 0 0 0 0 0 
0.015 0.00975 0 0 0 0 0 0 
0.021 0.00375 0 0 0 0 0 0 
0.021 0.00975 0 0 0 0 0 0 
0.027 0.00975 0 0 0 0 0 0 
0.021 0.00525 0 0 0 0 0 0 
0.021 0.01125 0 0 0 0 0 0 
0.0255 0.007125 0 0 0 0 0 0 
0.0285 0.007125 0 0 0 0 0 0 
0.0195 0.002625 0 0 0 0 0 0 
0.0225 0.002625 0 0 0 0 0 0 