ITEM: TIMESTEP
500000
ITEM: NUMBER OF CELLS
6913
ITEM: BOX BOUNDS oo ao pp
0 0.12
0 0.03
-0.1 0.1
ITEM: CELLS xc yc f_out[1] f_out[2] f_out[3] f_out[4] f_out[5] f_out[6] 
0.003 0.00675 0 0 0 0 0 0 
0.003 0.01275 0 0 0 0 0 0 
0.009 0.00675 0 0 0 0 0 0 
0.009 0.01275 0 0 0 0 0 0 
0.003 0.00825 0 0 0 0 0 0 
0.003 0.01425 0 0 0 0 0 0 
0.009 0.00825 0 0 0 0 0 0 
0.009 0.01425 0 0 0 0 0 0 
0.015 0.00825 0 0 0 0 0 0 
0.015 0.01425 0 0 0 0 0 0 
0.003 0.00375 0 0 0 0 0 0 
0.003 0.00975 0 0 0 0 0 0 
0.009 0.00375 0 0 0 0 0 0 
0.009 0.00975 0 0 0 0 0 0 
0.003 0.00525 0 0 0 0 0 0 
0.003 0.01125 0 0 0 0 0 0 
0.009 0.00525 0 0 0 0 0 0 
0.009 0.01125 0 0 0 0 0 0 
0.015 0.00525 0 0 0 0 0 0 
0.015 0.01125 0 0 0 0 0 0 
0.0015 0.000375 0 0 0 0 0 0 
0.0015 0.001125 0 0 0 0 0 0 
0.0015 0.001875 0 0 0 0 0 0 
0.0015 0.002625 0 0 0 0 0 0 
0.0045 0.002625 0 0 0 0 0 0 
0.0075 0.002625 0 0 0 0 0 0 
0.0105 0.002625 0 0 0 0 0 0 
0.0135 0.002625 0 0 0 0 0 0 
0.0165 0.002625 0 0 0 0 0 0 
0.00375 0.0001875 0 0 0 0 0 0 
0.00525 0.0001875 3.92014 2.14764e+23 0.00142818 20.3107 -9.7521 3.77225 
0.00375 0.0005625 0 0 0 0 0 0 
0.00375 0.0009375 0 0 0 0 0 0 
0.00375 0.0013125 0 0 0 0 0 0 
0.00675 0.0001875 3.77284 1.99191e+23 0.00132462 23.8357 2.89465 1.97652 
0.00825 0.0001875 3.82993 2.01123e+23 0.00133747 25.0691 1.12337 -2.18565 
0.00975 0.0001875 3.72773 1.93397e+23 0.00128609 28.3281 1.35352 -1.25038 
0.00375 0.0016875 0 0 0 0 0 0 
0.00375 0.0020625 0 0 0 0 0 0 
0.004875 0.00046875 3.97993 2.10925e+23 0.00140265 21.715 2.14936 -9.55934 
0.005625 0.00046875 3.84788 2.17493e+23 0.00144633 19.4799 -1.39322 -2.83284 
0.004875 0.00065625 3.84412 2.0778e+23 0.00138174 10.3198 -4.53097 -3.96468 
0.005625 0.00065625 4.00921 2.11919e+23 0.00140926 23.2089 2.62409 -3.27881 
0.004875 0.00084375 4.01294 2.25348e+23 0.00149856 17.6658 0.724001 1.19258 
0.005625 0.00084375 3.79841 2.22128e+23 0.00147715 16.3913 -6.54298 3.27068 
0.004875 0.00103125 3.85706 2.16509e+23 0.00143979 9.50723 -4.0152 -8.87897 
0.004875 0.00121875 3.76594 2.22871e+23 0.00148209 19.192 -2.03289 4.06153 
0.004875 0.00140625 3.91309 2.24833e+23 0.00149514 10.9966 -3.13134 3.40783 
0.006375 0.00046875 3.708 2.16334e+23 0.00143862 20.0509 1.91491 -0.308951 
0.007125 0.00046875 3.81067 2.0938e+23 0.00139238 23.9679 -0.911283 -2.38364 
0.006375 0.00065625 3.91134 2.14402e+23 0.00142577 23.2313 1.88132 0.425467 
0.007125 0.00065625 3.91766 2.13574e+23 0.00142027 24.6247 -4.05011 0.823194 
0.007875 0.00046875 4.02092 1.97018e+23 0.00131017 22.4138 -4.25052 2.41824 
0.008625 0.00046875 4.24724 1.91224e+23 0.00127164 24.3355 0.0922529 6.75941 
0.007875 0.00065625 4.04509 2.03089e+23 0.00135054 28.5803 4.92342 -3.89911 
0.008625 0.00065625 4.14243 1.99778e+23 0.00132852 26.7639 -2.40144 -0.56832 
0.009375 0.00046875 4.03231 2.01268e+23 0.00133843 30.5954 -7.3065 2.65681 
0.010125 0.00046875 4.12632 1.75771e+23 0.00116888 21.8804 2.79534 7.11432 
0.009375 0.00065625 3.76875 1.86533e+23 0.00124044 20.3092 6.44595 5.78987 
0.010125 0.00065625 3.91831 1.85153e+23 0.00123127 27.1941 2.68519 -2.24427 
0.010875 0.00046875 3.99184 1.85429e+23 0.0012331 31.5209 10.1863 0.594124 
0.011625 0.00046875 3.78936 1.72681e+23 0.00114833 26.981 2.74653 -1.59862 
0.010875 0.00065625 3.84638 1.88188e+23 0.00125145 25.533 6.72788 2.01723 
0.011625 0.00065625 3.7643 1.89568e+23 0.00126063 27.8068 2.39741 0.218875 
0.007125 0.00084375 4.12291 2.07105e+23 0.00137725 19.5973 -4.89669 5.24116 
0.008625 0.00084375 3.96343 1.95731e+23 0.00130161 23.9315 1.50141 -1.2846 
0.009375 0.00084375 3.8694 1.94872e+23 0.0012959 21.8185 -0.13251 -1.08048 
0.010125 0.00084375 3.88892 1.94872e+23 0.0012959 21.1756 -0.784406 1.49452 
0.010875 0.00084375 3.75573 1.95301e+23 0.00129875 19.0365 2.91812 2.91438 
0.011625 0.00084375 3.95248 1.82424e+23 0.00121312 31.7304 -2.02424 1.8919 
0.011625 0.00103125 3.99269 1.85253e+23 0.00123193 27.7922 0.151785 0.355926 
0.004875 0.00159375 4.03398 2.2156e+23 0.00147338 10.0051 2.49212 5.89776 
0.004875 0.00178125 3.93745 2.37276e+23 0.00157788 4.48478 -1.62216 -4.51441 
0.004875 0.00196875 3.76735 2.20804e+23 0.00146835 10.2137 1.61463 10.2559 
0.004875 0.00215625 0 0 0 0 0 0 
0.005625 0.00215625 0 0 0 0 0 0 
0.006375 0.00215625 0 0 0 0 0 0 
0.007125 0.00215625 0 0 0 0 0 0 
0.007875 0.00215625 0 0 0 0 0 0 
0.008625 0.00215625 0 0 0 0 0 0 
0.009375 0.00215625 0 0 0 0 0 0 
0.010125 0.00215625 0 0 0 0 0 0 
0.010875 0.00215625 0 0 0 0 0 0 
0.011625 0.00215625 0 0 0 0 0 0 
0.012375 0.00215625 0 0 0 0 0 0 
0.013125 0.00215625 0 0 0 0 0 0 
0.013875 0.00215625 0 0 0 0 0 0 
0.014625 0.00215625 0 0 0 0 0 0 
0.015375 0.00215625 0 0 0 0 0 0 
0.016125 0.00215625 0 0 0 0 0 0 
0.016875 0.00215625 0 0 0 0 0 0 
0.017625 0.00215625 0 0 0 0 0 0 
0.0069375 0.000984375 3.80543 2.09711e+23 0.00139458 33.3767 3.961 4.05781 
0.0073125 0.000984375 4.43102 2.02353e+23 0.00134565 26.6095 -4.46789 -4.4934 
0.0069375 0.00107813 3.7539 2.10287e+23 0.00139841 22.4803 -4.79794 3.27387 
0.0073125 0.00107813 3.88423 2.21037e+23 0.00146989 22.3347 -4.37513 -3.77648 
0.0069375 0.00135937 4.02395 2.08341e+23 0.00138547 14.3908 3.96697 0.0259318 
0.0073125 0.00135937 3.77506 1.98217e+23 0.00131814 22.1206 -0.251248 -1.63146 
0.0069375 0.00145312 3.96911 1.8842e+23 0.00125299 9.51111 7.31975 -6.10703 
0.0073125 0.00145312 4.0624 2.02377e+23 0.00134581 19.8263 -0.744572 0.319809 
0.0084375 0.00117188 3.9342 2.00263e+23 0.00133175 16.0005 0.137295 5.40107 
0.0088125 0.00117188 3.85015 1.95937e+23 0.00130298 21.4369 -3.05415 1.63566 
0.0084375 0.00126563 3.79523 2.11183e+23 0.00140437 22.7834 2.84725 -4.09695 
0.0088125 0.00126563 3.95368 2.0546e+23 0.00136631 25.5086 -3.90324 3.87005 
0.0084375 0.00135937 4.04647 1.99283e+23 0.00132523 13.6084 2.48953 -1.10764 
0.0088125 0.00135937 4.15562 1.99816e+23 0.00132877 14.8649 4.16077 -7.68233 
0.0084375 0.00145312 4.12708 1.7546e+23 0.00116681 10.6838 -4.25962 -3.08829 
0.0088125 0.00145312 3.97811 1.90414e+23 0.00126625 16.579 6.32049 7.25173 
0.0099375 0.00135937 3.87878 1.85429e+23 0.0012331 19.5528 2.1783 0.751021 
0.0103125 0.00135937 4.04979 1.89159e+23 0.00125791 19.8327 -1.69513 3.97035 
0.0099375 0.00145312 4.18176 1.91909e+23 0.00127619 11.6531 -2.09455 -4.14259 
0.0103125 0.00145312 3.84575 1.98389e+23 0.00131929 17.7778 5.6062 1.97307 
0.0054375 0.00154688 3.94864 2.11183e+23 0.00140437 12.8907 -7.66352 -4.55915 
0.0058125 0.00154688 3.99428 2.07905e+23 0.00138257 14.5079 -5.44741 -8.01926 
0.0054375 0.00164063 4.07 2.11036e+23 0.00140339 19.7075 2.84322 -0.551402 
0.0058125 0.00164063 4.19948 2.07945e+23 0.00138284 9.50069 -8.19442 -5.07212 
0.0054375 0.00173438 3.67486 2.1341e+23 0.00141918 16.2185 3.51088 5.72415 
0.0058125 0.00173438 3.70647 2.05893e+23 0.00136919 8.39789 3.3022 0.392949 
0.0054375 0.00182813 4.01746 2.199e+23 0.00146233 9.6907 -6.98382 0.00885774 
0.0058125 0.00182813 4.04872 2.14353e+23 0.00142545 7.96003 -5.07168 1.4006 
0.0061875 0.00154688 3.94402 2.18207e+23 0.00145108 17.507 2.68618 1.11563 
0.0065625 0.00154688 3.91307 2.08842e+23 0.0013888 14.004 -3.88963 0.371876 
0.0061875 0.00164063 3.96563 2.09711e+23 0.00139458 9.11002 5.28255 -5.08695 
0.0065625 0.00164063 3.95095 2.181e+23 0.00145036 21.3098 -1.49674 -1.0256 
0.0061875 0.00173438 3.82986 1.89605e+23 0.00126088 17.1839 -1.11721 1.09007 
0.0065625 0.00173438 3.87746 1.95035e+23 0.00129698 4.49261 -11.945 -1.94974 
0.0061875 0.00182813 4.01824 2.03655e+23 0.0013543 9.95191 -1.32202 -4.37208 
0.0065625 0.00182813 4.05607 1.99693e+23 0.00132796 7.7562 3.01639 -1.35607 
0.0069375 0.00173438 3.99765 2.10069e+23 0.00139696 15.0641 -3.23252 -6.31258 
0.0073125 0.00173438 3.92695 1.87099e+23 0.00124421 14.5792 -4.07158 -7.10456 
0.0069375 0.00182813 3.80114 2.09598e+23 0.00139383 15.5404 5.35861 0.583703 
0.0073125 0.00182813 3.93523 2.04844e+23 0.00136221 11.1467 5.39471 -0.751518 
0.0076875 0.00154688 3.92071 2.04627e+23 0.00136077 6.84817 -2.68125 -5.92561 
0.0080625 0.00154688 4.02674 2.02286e+23 0.0013452 10.4269 -6.16459 2.86487 
0.0076875 0.00164063 3.76732 2.00881e+23 0.00133586 8.01833 -0.0892745 4.35486 
0.0080625 0.00164063 4.10832 1.91168e+23 0.00127127 11.9039 -5.70904 -5.89126 
0.0084375 0.00154688 4.07518 1.84024e+23 0.00122376 18.0516 -3.46844 -2.77025 
0.0088125 0.00154688 3.93074 1.90111e+23 0.00126424 9.21323 0.856571 -0.948891 
0.0084375 0.00164063 3.91922 1.8278e+23 0.00121549 15.909 3.71889 2.73071 
0.0088125 0.00164063 4.1778 1.78365e+23 0.00118613 11.3693 6.9179 -8.01046 
0.0084375 0.00173438 4.16728 1.89605e+23 0.00126088 14.2557 3.26216 5.92637 
0.0088125 0.00173438 4.24072 1.76241e+23 0.001172 14.6252 -2.02246 4.84392 
0.0084375 0.00182813 4.03522 1.89787e+23 0.00126209 6.60041 1.81521 -2.20502 
0.0088125 0.00182813 4.17239 1.77505e+23 0.00118041 12.7532 6.97811 -2.7872 
0.0061875 0.00192187 3.86483 2.08419e+23 0.00138599 5.21031 0.787931 -2.12779 
0.0065625 0.00192187 3.98959 1.9862e+23 0.00132082 -1.37973 -1.27892 -2.38669 
0.0061875 0.00201563 4.00666 2.1463e+23 0.00142729 4.11211 0.0210189 1.70078 
0.0065625 0.00201563 4.12017 2.1025e+23 0.00139816 -4.77848 -9.69813 -5.09966 
0.0091875 0.00154688 4.00728 1.7981e+23 0.00119574 8.58185 -2.90339 -12.3154 
0.0095625 0.00154688 4.16479 2.05564e+23 0.001367 14.7501 -1.30513 -0.0171516 
0.0091875 0.00164063 3.98618 1.81455e+23 0.00120668 8.72237 3.85597 -2.53952 
0.0095625 0.00164063 3.84019 1.97791e+23 0.00131531 6.97429 -2.00664 -5.10886 
0.0099375 0.00154688 4.04965 1.86365e+23 0.00123933 22.4876 5.33478 -6.85144 
0.0103125 0.00154688 3.88866 1.83556e+23 0.00122065 18.5661 2.17285 3.15464 
0.0099375 0.00164063 3.96794 1.85429e+23 0.0012331 9.64642 -6.7885 -1.07728 
0.0103125 0.00164063 3.64039 1.79689e+23 0.00119494 8.22191 -1.83723 4.39603 
0.0099375 0.00173438 4.05371 1.82923e+23 0.00121644 14.8086 -0.484199 -1.36687 
0.0103125 0.00173438 3.9472 1.86682e+23 0.00124143 13.521 -1.50243 -3.54214 
0.0099375 0.00182813 3.97341 1.79486e+23 0.00119358 8.32581 -2.40346 -0.0144176 
0.0103125 0.00182813 3.99483 1.79486e+23 0.00119358 9.78164 12.0517 -7.77006 
0.0106875 0.00154688 4.26116 1.68104e+23 0.00111789 24.3019 7.11958 -0.70435 
0.0110625 0.00154688 3.81603 1.78405e+23 0.00118639 8.25465 -4.70555 3.56425 
0.0106875 0.00164063 4.0443 1.72626e+23 0.00114796 15.5456 3.90961 -5.17832 
0.0110625 0.00164063 3.93681 1.66445e+23 0.00110686 15.9329 -3.62213 -0.621049 
0.0106875 0.00173438 3.92016 1.77494e+23 0.00118033 18.1891 0.18157 -1.79114 
0.0110625 0.00173438 4.2244 1.69559e+23 0.00112757 8.92188 7.22014 -1.32666 
0.0106875 0.00182813 4.03563 1.80674e+23 0.00120148 11.0865 5.76631 -2.26177 
0.0110625 0.00182813 4.03656 1.73146e+23 0.00115142 11.9322 -2.83419 -4.8829 
0.0114375 0.00173438 3.65276 1.73735e+23 0.00115534 13.9417 8.57876 -0.25565 
0.0118125 0.00173438 3.92817 1.55777e+23 0.00103592 8.69758 -5.0122 5.58515 
0.0114375 0.00182813 4.00632 1.70373e+23 0.00113298 12.5656 0.245806 6.16526 
0.0118125 0.00182813 4.1834 1.64826e+23 0.00109609 1.45429 11.7911 9.10791 
0.0144375 0.00154688 4.02583 1.63889e+23 0.00108986 8.8373 -1.98784 -1.68814 
0.0148125 0.00154688 3.74044 1.65762e+23 0.00110232 17.4757 3.64248 -6.49493 
0.0144375 0.00164063 3.97909 1.74392e+23 0.0011597 16.6432 2.10605 4.76094 
0.0148125 0.00164063 3.8299 1.39955e+23 0.000930699 18.2154 10.7309 3.47417 
0.0136875 0.00173438 3.98145 1.57865e+23 0.0010498 14.5441 -1.0913 -1.15426 
0.0140625 0.00173438 3.91416 1.587e+23 0.00105536 18.9043 -10.412 -3.80328 
0.0136875 0.00182813 4.09849 1.6958e+23 0.00112771 4.18116 6.70143 0.838256 
0.0140625 0.00182813 3.91915 1.70373e+23 0.00113298 11.0817 4.8261 -10.5893 
0.0151875 0.00173438 4.44962 1.69141e+23 0.00112479 4.10316 3.6522 4.07731 
0.0155625 0.00173438 4.20832 1.34478e+23 0.000894277 8.42842 -4.2929 0.502024 
0.0151875 0.00182813 3.94881 1.56109e+23 0.00103812 14.0316 -3.39371 1.38573 
0.0155625 0.00182813 3.84559 1.57694e+23 0.00104866 17.681 1.97382 -0.11122 
0.0159375 0.00173438 3.98783 1.61206e+23 0.00107202 21.4822 1.50491 -7.79746 
0.0163125 0.00173438 3.73114 1.48677e+23 0.000988704 5.81989 -3.09344 -9.63539 
0.0159375 0.00182813 4.0805 1.50958e+23 0.00100387 18.8342 -0.535506 -4.62794 
0.0163125 0.00182813 3.95944 1.57298e+23 0.00104603 8.96349 -5.17269 -5.75706 
0.0174375 0.00154688 4.11381 1.53588e+23 0.00102136 19.9015 -5.0329 -1.33544 
0.0178125 0.00154688 3.85251 1.59207e+23 0.00105872 15.9103 -8.04781 1.06107 
0.0174375 0.00164063 3.73505 1.59381e+23 0.00105988 24.3944 7.39779 1.80897 
0.0178125 0.00164063 3.95449 1.43928e+23 0.000957122 19.5113 -1.62353 4.2574 
0.0054375 0.000984375 3.82007 2.11183e+23 0.00140437 24.3272 1.19259 3.44428 
0.0058125 0.000984375 4.09146 1.98674e+23 0.00132118 18.2681 10.413 -1.33095 
0.0054375 0.00107813 3.84519 2.13646e+23 0.00142075 17.9243 0.712763 -2.60791 
0.0058125 0.00107813 3.9618 2.19021e+23 0.00145649 23.0902 -0.869729 2.34019 
0.0054375 0.00117188 4.12148 2.15098e+23 0.0014304 28.4934 -8.56471 -7.25515 
0.0058125 0.00117188 3.70576 2.0768e+23 0.00138107 23.7677 -11.8883 3.86275 
0.0054375 0.00126563 4.10318 2.26063e+23 0.00150332 25.7869 -14.4206 6.73238 
0.0058125 0.00126563 3.66386 2.04315e+23 0.0013587 19.6647 -2.57979 0.629077 
0.0054375 0.00135937 3.70875 2.21662e+23 0.00147405 16.9829 -4.98582 3.33113 
0.0058125 0.00135937 3.98236 2.17932e+23 0.00144925 14.584 -10.0398 -3.08412 
0.0054375 0.00145312 3.84468 2.17331e+23 0.00144525 18.3216 -7.30227 -0.668344 
0.0058125 0.00145312 3.6767 1.97891e+23 0.00131597 7.41398 -3.44052 2.06964 
0.0061875 0.00135937 3.79328 1.94487e+23 0.00129334 15.476 -5.24835 -2.44562 
0.0065625 0.00135937 3.91238 1.9875e+23 0.00132169 11.8271 3.02846 6.21839 
0.0061875 0.00145312 4.13721 2.1434e+23 0.00142536 19.3549 -0.328152 -2.38979 
0.0065625 0.00145312 3.99597 2.23312e+23 0.00148503 18.0799 3.63419 3.53396 
0.0091875 0.00117188 3.94436 1.77394e+23 0.00117967 19.3269 1.4604 -6.65985 
0.0095625 0.00117188 3.4438 1.88519e+23 0.00125365 19.2354 -0.607697 8.42595 
0.0091875 0.00126563 4.06164 1.95158e+23 0.0012978 24.0315 3.30444 -8.71517 
0.0095625 0.00126563 4.26287 1.92297e+23 0.00127877 13.2043 6.63215 5.08414 
0.0091875 0.00135937 4.03348 1.99816e+23 0.00132877 13.6558 -3.5642 0.0363052 
0.0095625 0.00135937 3.89834 1.90225e+23 0.00126499 21.8796 -2.54011 -4.12591 
0.0091875 0.00145312 4.17052 1.90912e+23 0.00126957 5.76531 3.88557 -3.90139 
0.0095625 0.00145312 3.92153 1.90912e+23 0.00126957 20.0598 0.623607 -2.16878 
0.0054375 0.00192187 3.99438 2.22741e+23 0.00148123 2.64947 -4.43529 -2.73094 
0.0058125 0.00192187 3.89176 2.15957e+23 0.00143611 6.66664 -2.10852 0.650599 
0.0054375 0.00201563 3.7179 2.17916e+23 0.00144914 -3.04416 1.11884 -4.27317 
0.0058125 0.00201563 4.4755 2.1463e+23 0.00142729 7.06707 9.11887 7.53791 
0.0069375 0.00154688 4.07094 2.02754e+23 0.00134832 16.5894 4.31484 0.227008 
0.0073125 0.00154688 3.86991 1.99945e+23 0.00132963 16.5339 -1.91826 2.60746 
0.0069375 0.00164063 4.06523 2.03972e+23 0.00135641 12.2423 1.12856 -4.47189 
0.0073125 0.00164063 3.93956 2.02647e+23 0.0013476 9.24449 3.84295 -3.24881 
0.0076875 0.00173438 3.72764 1.94199e+23 0.00129142 4.58286 4.1098 -7.04035 
0.0080625 0.00173438 4.04934 1.97123e+23 0.00131087 6.72598 3.89284 -0.016383 
0.0076875 0.00182813 4.054 1.88995e+23 0.00125682 11.7578 8.32023 -9.16987 
0.0080625 0.00182813 4.2147 1.99296e+23 0.00132532 8.47728 -1.70394 -2.3875 
0.0091875 0.00173438 3.736 1.92946e+23 0.00128309 6.90999 -1.68356 -0.0909794 
0.0095625 0.00173438 3.95176 1.79582e+23 0.00119422 10.2603 0.149154 3.39171 
0.0091875 0.00182813 4.15112 1.91768e+23 0.00127526 10.8359 0.548754 -2.51457 
0.0095625 0.00182813 4.24724 1.77108e+23 0.00117777 13.0735 -0.326512 -1.73938 
0.0099375 0.00192187 3.90661 1.94097e+23 0.00129075 4.86461 6.61639 4.60865 
0.0103125 0.00192187 3.99114 1.97866e+23 0.00131581 4.13459 0.812578 -2.64782 
0.0099375 0.00201563 4.01166 1.77399e+23 0.0011797 16.2148 4.82978 -3.25335 
0.0103125 0.00201563 4.2262 1.54402e+23 0.00102678 7.30629 -3.69564 4.1887 
0.0106875 0.00192187 4.07746 1.8769e+23 0.00124814 11.4289 3.86494 4.15312 
0.0110625 0.00192187 4.10903 1.83168e+23 0.00121806 4.15104 -4.22104 -2.42095 
0.0106875 0.00201563 4.0703 1.59878e+23 0.00106319 -9.4197 -5.26139 2.69351 
0.0110625 0.00201563 4.15998 1.93824e+23 0.00128893 0.197693 2.74578 7.76381 
0.0129375 0.00154688 3.90421 1.72318e+23 0.00114591 14.3242 -3.09113 -5.39785 
0.0133125 0.00154688 3.68678 1.65762e+23 0.00110232 18.4095 7.59859 -1.54733 
0.0129375 0.00164063 4.02324 1.68652e+23 0.00112154 14.255 -3.52499 3.97559 
0.0133125 0.00164063 3.93448 1.77923e+23 0.00118319 17.6594 -2.15919 -10.5427 
0.0121875 0.00173438 3.84471 1.66218e+23 0.00110535 16.0908 4.20532 -5.91592 
0.0125625 0.00173438 4.00433 1.66635e+23 0.00110813 21.6049 -2.06102 -0.468046 
0.0121875 0.00182813 3.95051 1.82259e+23 0.00121202 11.281 -1.51537 4.38868 
0.0125625 0.00182813 3.89653 1.73939e+23 0.00115669 3.18521 2.97942 -6.37714 
0.0136875 0.00154688 4.07654 1.81683e+23 0.00120819 21.7445 -3.94891 3.03374 
0.0140625 0.00154688 4.11333 1.67635e+23 0.00111477 12.4394 -7.97504 3.15302 
0.0136875 0.00164063 4.18256 1.59822e+23 0.00106282 11.0572 0.410085 6.08517 
0.0140625 0.00164063 4.15547 1.62913e+23 0.00108337 16.6102 -6.78371 1.35172 
0.0144375 0.00173438 4.03983 1.66218e+23 0.00110535 11.5793 3.92432 0.936741 
0.0148125 0.00173438 4.05685 1.6413e+23 0.00109146 14.1045 5.91106 -5.03126 
0.0144375 0.00182813 4.03081 1.51751e+23 0.00100914 11.4841 0.137689 5.65759 
0.0148125 0.00182813 3.56789 1.5809e+23 0.0010513 10.1009 -3.43128 -0.0925697 
0.0166875 0.00173438 4.29936 1.45336e+23 0.000966486 12.956 -1.2846 -0.87136 
0.0170625 0.00173438 3.7907 1.41995e+23 0.000944268 12.9931 3.46399 3.59467 
0.0166875 0.00182813 4.03316 1.29563e+23 0.000861591 1.822 -2.69266 -1.44832 
0.0170625 0.00182813 3.90884 1.45411e+23 0.000966984 5.16867 -2.77916 -1.20876 
0.0121875 0.00154688 4.09655 1.74659e+23 0.00116148 20.4719 4.25606 3.65638 
0.0125625 0.00154688 3.86246 1.70445e+23 0.00113346 20.7585 -1.78166 1.39213 
0.0121875 0.00164063 4.21121 1.69977e+23 0.00113034 11.5352 2.61288 3.24812 
0.0125625 0.00164063 3.89362 1.71301e+23 0.00113915 11.4993 8.33919 -1.30857 
0.0151875 0.00154688 3.79334 1.47969e+23 0.000983991 7.00308 -2.18047 4.90421 
0.0155625 0.00154688 3.93228 1.6623e+23 0.00110543 17.2628 -6.06719 0.92897 
0.0151875 0.00164063 3.76617 1.51875e+23 0.00100997 18.7433 5.52395 -5.14047 
0.0155625 0.00164063 4.10637 1.44811e+23 0.000962994 19.926 -0.582079 -3.96929 
0.0159375 0.00154688 3.92803 1.48905e+23 0.000990219 29.2222 1.34186 -3.69094 
0.0163125 0.00154688 4.05695 1.53119e+23 0.00101824 16.8814 2.75801 -1.23712 
0.0159375 0.00164063 4.01346 1.51875e+23 0.00100997 13.7298 -1.22796 -0.545101 
0.0163125 0.00164063 4.06566 1.5629e+23 0.00103933 5.80728 -7.75469 -3.87388 
0.0069375 0.00117188 3.81795 2.18188e+23 0.00145095 16.4548 -6.59917 -0.794586 
0.0073125 0.00117188 3.97636 2.15098e+23 0.0014304 31.3526 7.69986 -10.9332 
0.0069375 0.00126563 3.82176 2.06032e+23 0.00137011 20.3722 -6.25274 3.20683 
0.0073125 0.00126563 4.07001 1.83712e+23 0.00122168 20.8145 -5.44836 -1.02708 
0.0076875 0.00135937 3.87067 1.90757e+23 0.00126854 18.6817 4.89305 -1.1723 
0.0080625 0.00135937 4.00636 1.88093e+23 0.00125082 9.22492 -0.970219 -0.838874 
0.0076875 0.00145312 4.06812 1.91411e+23 0.00127288 10.7069 -2.72696 -1.40755 
0.0080625 0.00145312 4.03617 1.96395e+23 0.00130603 16.5642 -9.47444 0.271059 
0.0106875 0.00135937 3.7771 1.71042e+23 0.00113743 17.1597 -3.16067 3.34989 
0.0110625 0.00135937 3.93686 1.77969e+23 0.00118349 18.1239 -2.20144 14.546 
0.0106875 0.00145312 3.94163 1.70475e+23 0.00113366 13.6647 0.527944 2.88659 
0.0110625 0.00145312 4.03413 1.91411e+23 0.00127288 19.7068 10.4597 -4.46994 
0.0114375 0.00135937 4.0288 1.8383e+23 0.00122247 19.1201 -0.231996 -0.209708 
0.0118125 0.00135937 3.9134 1.85962e+23 0.00123665 18.4354 -4.51237 2.45891 
0.0114375 0.00145312 3.74515 1.81441e+23 0.00120658 17.3804 -5.2068 6.44755 
0.0118125 0.00145312 4.11044 1.73466e+23 0.00115355 19.6635 3.22661 4.84391 
0.0076875 0.00192187 4.11904 2.06158e+23 0.00137095 3.814 -3.76452 1.083 
0.0080625 0.00192187 4.034 1.98243e+23 0.00131832 4.34216 3.46821 6.55817 
0.0076875 0.00201563 3.96898 1.92729e+23 0.00128165 17.3202 -7.53014 5.58169 
0.0080625 0.00201563 3.92133 1.91634e+23 0.00127437 7.11366 -4.50504 8.41154 
0.0129375 0.00173438 4.04978 1.6413e+23 0.00109146 10.364 0.313346 -1.42394 
0.0133125 0.00173438 4.03751 1.71229e+23 0.00113868 4.9104 -0.664008 -0.180126 
0.0129375 0.00182813 4.14447 1.75524e+23 0.00116723 13.7162 -7.58037 2.2551 
0.0133125 0.00182813 4.08335 1.68392e+23 0.0011198 9.34231 3.49178 -0.0150804 
0.0136875 0.00192187 4.13278 1.7563e+23 0.00116794 7.01889 0.697351 -2.57684 
0.0140625 0.00192187 3.96553 1.79022e+23 0.0011905 8.08312 3.55901 -4.12366 
0.0136875 0.00201563 3.99619 1.82874e+23 0.00121611 17.7438 7.34899 -4.15852 
0.0140625 0.00201563 3.93634 1.59878e+23 0.00106319 19.9158 0.293673 -0.467653 
0.0099375 0.000984375 3.91922 2.00146e+23 0.00133097 16.9233 4.86116 3.42652 
0.0103125 0.000984375 3.98595 1.96466e+23 0.0013065 34.7258 -6.68319 0.643137 
0.0099375 0.00107813 4.19023 1.79382e+23 0.00119289 18.5336 7.27491 6.28563 
0.0103125 0.00107813 4.08141 1.80726e+23 0.00120183 27.8162 -4.66459 3.60843 
0.0069375 0.00192187 4.08896 2.09927e+23 0.00139601 6.14404 2.63114 -3.85947 
0.0073125 0.00192187 3.94813 2.00881e+23 0.00133586 10.0472 1.7884 1.96648 
0.0069375 0.00201563 4.25602 2.24486e+23 0.00149283 6.1521 7.81408 10.6888 
0.0073125 0.00201563 3.98216 2.20106e+23 0.0014637 8.90457 -2.19888 -10.8603 
0.0114375 0.00154688 3.80271 1.81683e+23 0.00120819 17.2138 1.5888 -2.22147 
0.0118125 0.00154688 3.89992 1.72318e+23 0.00114591 12.1056 -3.95297 -1.38756 
0.0114375 0.00164063 3.78691 1.78806e+23 0.00118906 17.8407 1.60355 -1.95081 
0.0118125 0.00164063 3.97599 1.81455e+23 0.00120668 15.2447 3.98781 -5.60157 
0.0114375 0.00192187 4.02535 2.00881e+23 0.00133586 9.04043 -0.714702 -3.08425 
0.0118125 0.00192187 3.74023 1.76384e+23 0.00117295 2.69286 -0.557598 2.37036 
0.0114375 0.00201563 3.92561 1.89444e+23 0.0012598 20.689 6.11151 5.11857 
0.0118125 0.00201563 4.36971 1.92729e+23 0.00128165 8.95956 -9.27805 2.87156 
0.0061875 0.00117188 3.84149 2.14479e+23 0.00142629 8.54494 6.22806 -8.62863 
0.0065625 0.00117188 3.63699 2.02736e+23 0.00134819 9.24959 2.02836 -1.10349 
0.0061875 0.00126563 3.80238 2.08321e+23 0.00138534 15.5528 -2.9928 -5.40845 
0.0065625 0.00126563 4.00533 2.01454e+23 0.00133967 19.9961 6.13175 6.57148 
0.0121875 0.00192187 4.02476 1.8769e+23 0.00124814 7.05763 5.56737 6.075 
0.0125625 0.00192187 3.83067 1.50378e+23 0.00100002 -0.220732 -2.46032 -0.215123 
0.0121875 0.00201563 4.05915 1.55498e+23 0.00103406 7.36016 8.11468 -5.71981 
0.0125625 0.00201563 4.0456 1.94919e+23 0.00129621 9.9037 -2.82402 0.191001 
0.0166875 0.00154688 3.92755 1.43286e+23 0.000952852 19.7815 -2.88999 -1.6704 
0.0170625 0.00154688 3.81608 1.54056e+23 0.00102447 10.904 -4.88224 -1.92004 
0.0166875 0.00164063 3.94455 1.64237e+23 0.00109218 10.7524 -0.940319 -12.2245 
0.0170625 0.00164063 3.77454 1.46577e+23 0.000974738 21.1452 -3.57749 0.248221 
0.0099375 0.00117188 3.67678 2.01499e+23 0.00133997 22.3179 -4.9644 -3.19652 
0.0103125 0.00117188 4.25342 1.84193e+23 0.00122488 11.7804 2.1033 3.40273 
0.0099375 0.00126563 4.04913 1.89435e+23 0.00125974 21.7386 1.66447 -3.98692 
0.0103125 0.00126563 4.08804 1.92869e+23 0.00128258 26.7131 5.06219 10.5671 
0.0129375 0.00192187 3.95499 1.7073e+23 0.00113536 4.70067 2.09945 -4.09801 
0.0133125 0.00192187 3.94479 1.80153e+23 0.00119801 4.28373 -1.67535 -1.0341 
0.0129375 0.00201563 4.24395 1.68638e+23 0.00112144 15.8301 3.7706 15.2466 
0.0133125 0.00201563 3.98451 1.78494e+23 0.00118698 10.2458 9.80627 -2.38133 
0.0084375 0.000984375 3.96495 1.9058e+23 0.00126736 20.7819 -4.35011 -9.40531 
0.0088125 0.000984375 3.96697 2.0824e+23 0.00138479 17.5158 1.99311 -0.361549 
0.0084375 0.00107813 3.7632 1.99538e+23 0.00132693 13.9339 14.1339 -10.9368 
0.0088125 0.00107813 3.99343 1.97522e+23 0.00131352 25.226 -0.257766 9.90805 
0.0106875 0.00117188 4.21507 1.98409e+23 0.00131942 23.9623 6.14172 1.15764 
0.0110625 0.00117188 4.05535 1.76776e+23 0.00117556 11.9092 -3.08819 -0.339598 
0.0106875 0.00126563 3.8346 1.91724e+23 0.00127497 23.3281 -1.33066 1.17559 
0.0110625 0.00126563 3.92477 1.96303e+23 0.00130541 26.3674 -1.41605 5.87641 
0.0106875 0.000984375 4.46378 1.83957e+23 0.00122332 25.6906 -5.31669 -1.18592 
0.0110625 0.000984375 3.89574 1.9058e+23 0.00126736 27.5336 -1.53798 -3.6322 
0.0106875 0.00107813 3.66831 1.82742e+23 0.00121523 21.5756 4.21455 -5.69634 
0.0110625 0.00107813 4.16945 1.73336e+23 0.00115268 26.2186 -1.60389 5.16581 
0.0174375 0.00173438 4.18002 1.51601e+23 0.00100814 17.1909 3.11471 5.87783 
0.0178125 0.00173438 4.15272 1.4283e+23 0.000949822 15.4037 -4.99783 -2.68517 
0.0174375 0.00182813 4.19802 1.51751e+23 0.00100914 14.1395 -0.51649 -1.85718 
0.0178125 0.00182813 3.85651 1.30355e+23 0.000866861 1.49032 -8.79117 -4.05209 
0.0144375 0.00192187 4.21449 1.75253e+23 0.00116543 7.62485 2.06677 4.52499 
0.0148125 0.00192187 3.92949 1.54901e+23 0.00103009 8.55398 -8.66651 -5.37436 
0.0144375 0.00201563 4.34011 1.42357e+23 0.000946673 1.55751 -9.996 3.37104 
0.0148125 0.00201563 4.09011 1.67543e+23 0.00111416 -1.25497 9.71951 -12.2809 
0.0151875 0.00192187 4.09433 1.63193e+23 0.00108523 5.33059 -10.1384 1.66764 
0.0155625 0.00192187 4.17204 1.61308e+23 0.0010727 8.42272 2.9536 0.440649 
0.0151875 0.00201563 3.83042 1.75208e+23 0.00116514 -2.38717 14.7436 -6.29054 
0.0155625 0.00201563 3.90676 1.51117e+23 0.00100493 5.39052 -10.7493 -14.0483 
0.0166875 0.00192187 3.85473 1.61685e+23 0.00107521 6.79521 -3.4609 5.24661 
0.0170625 0.00192187 4.01426 1.49625e+23 0.000995003 8.01962 -7.17149 -5.39545 
0.0166875 0.00201563 4.08919 1.25931e+23 0.000837442 16.7274 -2.44842 -2.23152 
0.0170625 0.00201563 4.21692 1.32501e+23 0.000881134 4.60021 -0.280726 -2.15636 
0.0061875 0.000984375 3.70843 2.20749e+23 0.00146798 17.1096 -5.47039 -0.0501757 
0.0065625 0.000984375 4.14712 2.06032e+23 0.00137011 25.3005 8.25392 -4.05333 
0.0061875 0.00107813 3.95102 2.41192e+23 0.00160393 23.2597 1.3812 -1.17307 
0.0065625 0.00107813 3.72331 1.9685e+23 0.00130905 16.8967 1.23646 -0.350949 
0.0076875 0.000984375 3.90741 2.25164e+23 0.00149734 17.4381 -5.66713 0.302825 
0.0080625 0.000984375 4.21287 1.87636e+23 0.00124778 18.4321 -1.1958 -3.63615 
0.0076875 0.00107813 3.94524 1.94835e+23 0.00129565 29.3697 -17.3584 -4.7259 
0.0080625 0.00107813 4.06948 1.97522e+23 0.00131352 22.711 -9.58625 -8.50983 
0.0091875 0.000984375 4.04666 1.94259e+23 0.00129182 18.4991 -11.6713 8.99025 
0.0095625 0.000984375 3.68998 1.82486e+23 0.00121353 24.5543 -6.33037 -3.0879 
0.0091875 0.00107813 4.05436 1.94835e+23 0.00129565 26.3175 3.68078 -3.44581 
0.0095625 0.00107813 4.02094 2.03569e+23 0.00135373 20.7328 3.20532 0.11688 
0.0091875 0.00192187 3.84447 1.98243e+23 0.00131832 12.321 1.82637 -1.66053 
0.0095625 0.00192187 3.92339 1.83168e+23 0.00121806 11.9041 -1.08118 0.424426 
0.0091875 0.00201563 4.72373 1.80684e+23 0.00120155 -0.0285579 -1.45909 6.3702 
0.0095625 0.00201563 4.46997 1.94919e+23 0.00129621 4.6094 -6.20346 8.43951 
0.0174375 0.00192187 4.22195 1.49625e+23 0.000995003 6.39295 12.5265 -3.72688 
0.0178125 0.00192187 3.77381 1.57916e+23 0.00105014 6.35664 10.0379 3.63709 
0.0174375 0.00201563 3.62604 1.41262e+23 0.000939391 6.55956 10.9949 0.711176 
0.0178125 0.00201563 3.54353 1.52212e+23 0.00101221 3.45483 0.649213 4.12655 
0.0061875 0.000796875 4.02972 2.1997e+23 0.0014628 24.5253 -3.64063 1.09908 
0.0065625 0.000796875 3.8731 1.95428e+23 0.00129959 26.698 -1.15692 -4.44325 
0.0061875 0.000890625 3.62958 2.06574e+23 0.00137372 16.4009 1.1243 3.87946 
0.0065625 0.000890625 3.88998 2.04135e+23 0.00135749 24.563 -3.2585 3.45759 
0.0084375 0.00192187 4.0043 1.90328e+23 0.00126568 3.28429 4.10768 7.11974 
0.0088125 0.00192187 3.95658 1.92967e+23 0.00128323 3.5256 -2.50062 0.71331 
0.0084375 0.00201563 3.76765 2.17916e+23 0.00144914 1.38252 -2.31728 1.77107 
0.0088125 0.00201563 3.85984 2.11345e+23 0.00140545 12.6704 2.27906 -4.34033 
0.0114375 0.00117188 3.77627 1.75539e+23 0.00116734 28.4036 1.32091 -1.47799 
0.0118125 0.00117188 3.8257 1.82338e+23 0.00121255 34.0139 3.46805 -4.88988 
0.0114375 0.00126563 4.05327 1.81423e+23 0.00120646 29.9238 3.26186 -9.34701 
0.0118125 0.00126563 3.68295 1.92869e+23 0.00128258 23.2601 -4.24879 1.76866 
0.0076875 0.00117188 3.73177 1.83575e+23 0.00122077 20.6224 -4.47211 6.10675 
0.0080625 0.00117188 4.12422 1.88519e+23 0.00125365 10.5954 -6.62585 3.86855 
0.0076875 0.00126563 4.06561 2.08894e+23 0.00138914 23.6945 0.118693 2.11001 
0.0080625 0.00126563 3.81357 2.07749e+23 0.00138153 22.917 2.65258 0.0159094 
0.0159375 0.00192187 3.64264 1.39825e+23 0.000929839 5.63833 2.04381 4.78432 
0.0163125 0.00192187 4.16263 1.57162e+23 0.00104513 11.9151 5.67033 5.36649 
0.0159375 0.00201563 4.25083 1.42357e+23 0.000946673 4.27749 2.27535 -0.454695 
0.0163125 0.00201563 4.85115 1.56593e+23 0.00104134 6.52525 -3.82181 11.0958 
0.0076875 0.000796875 4.12281 2.02699e+23 0.00134795 18.8604 -2.76802 -4.43725 
0.0080625 0.000796875 3.61255 1.88156e+23 0.00125124 26.9275 -3.80186 -5.99092 
0.0076875 0.000890625 3.7581 1.82989e+23 0.00121688 14.1462 6.97093 0.107489 
0.0080625 0.000890625 4.19224 1.96815e+23 0.00130882 21.3156 6.77378 0.31679 
0.010875 9.375e-05 3.96147 2.06676e+23 0.0013744 39.2448 0.801754 5.83042 
0.011625 9.375e-05 3.8568 1.68045e+23 0.0011175 33.5443 -13.4277 17.4888 
0.010875 0.00028125 3.69396 1.71264e+23 0.00113891 27.0593 7.24738 -3.51627 
0.011625 0.00028125 3.58525 1.8221e+23 0.00121169 20.44 8.55925 10.7142 
0.009 0.01875 0 0 0 0 0 0 
0.009 0.02475 0 0 0 0 0 0 
0.003 0.01875 0 0 0 0 0 0 
0.003 0.02475 0 0 0 0 0 0 
0.003 0.02025 0 0 0 0 0 0 
0.003 0.02625 0 0 0 0 0 0 
0.009 0.02025 0 0 0 0 0 0 
0.009 0.02625 0 0 0 0 0 0 
0.015 0.02025 0 0 0 0 0 0 
0.015 0.02625 0 0 0 0 0 0 
0.003 0.01575 0 0 0 0 0 0 
0.003 0.02175 0 0 0 0 0 0 