ITEM: TIMESTEP
500000
ITEM: NUMBER OF CELLS
29881
ITEM: BOX BOUNDS oo ao pp
0 0.12
0 0.03
-0.1 0.1
ITEM: CELLS xc yc f_out[1] f_out[2] f_out[3] f_out[4] f_out[5] f_out[6] 
0.003 0.00375 0 0 0 0 0 0 
0.003 0.00525 0 0 0 0 0 0 
0.003 0.00675 0 0 0 0 0 0 
0.003 0.00825 0 0 0 0 0 0 
0.003 0.00975 0 0 0 0 0 0 
0.003 0.01125 0 0 0 0 0 0 
0.003 0.01275 0 0 0 0 0 0 
0.003 0.01425 0 0 0 0 0 0 
0.003 0.01575 0 0 0 0 0 0 
0.003 0.01725 0 0 0 0 0 0 
0.003 0.01875 0 0 0 0 0 0 
0.003 0.02025 0 0 0 0 0 0 
0.003 0.02175 0 0 0 0 0 0 
0.003 0.02325 0 0 0 0 0 0 
0.027 0.02325 0 0 0 0 0 0 
0.003 0.02475 0 0 0 0 0 0 
0.027 0.02475 0 0 0 0 0 0 
0.003 0.02625 0 0 0 0 0 0 
0.027 0.02625 0 0 0 0 0 0 
0.003 0.02775 0 0 0 0 0 0 
0.027 0.02775 0 0 0 0 0 0 
0.003 0.02925 0 0 0 0 0 0 
0.027 0.02925 0 0 0 0 0 0 
0.009 0.01425 0 0 0 0 0 0 
0.009 0.01575 0 0 0 0 0 0 
0.009 0.01725 0 0 0 0 0 0 
0.009 0.01875 0 0 0 0 0 0 
0.009 0.02025 0 0 0 0 0 0 
0.009 0.02175 0 0 0 0 0 0 
0.009 0.02325 0 0 0 0 0 0 
0.009 0.02475 0 0 0 0 0 0 
0.009 0.02625 0 0 0 0 0 0 
0.009 0.02775 0 0 0 0 0 0 
0.009 0.02925 0 0 0 0 0 0 
0.015 0.01425 0 0 0 0 0 0 
0.015 0.01575 0 0 0 0 0 0 
0.015 0.01725 0 0 0 0 0 0 
0.015 0.01875 0 0 0 0 0 0 
0.015 0.02025 0 0 0 0 0 0 
0.015 0.02175 0 0 0 0 0 0 
0.015 0.02325 0 0 0 0 0 0 
0.015 0.02475 0 0 0 0 0 0 
0.015 0.02625 0 0 0 0 0 0 
0.015 0.02775 -3.54753e-17 6.37257e+15 4.23776e-11 -32.3288 1.5633 4.1392 
0.015 0.02925 0 0 0 0 0 0 
0.021 0.02325 0 0 0 0 0 0 
0.021 0.02475 0 0 0 0 0 0 
0.021 0.02625 0 0 0 0 0 0 
0.021 0.02775 0 0 0 0 0 0 
0.021 0.02925 0 0 0 0 0 0 
0.0015 0.000375 0 0 0 0 0 0 
0.0015 0.001125 0 0 0 0 0 0 
0.0015 0.001875 0 0 0 0 0 0 
0.0015 0.002625 0 0 0 0 0 0 
0.0045 0.002625 0 0 0 0 0 0 
0.0255 0.022125 0 0 0 0 0 0 
0.0285 0.022125 0 0 0 0 0 0 
0.0105 0.000375 2.0018 4.0039e+21 2.66259e-05 3.84275 4.5642 3.32722 
0.0105 0.001125 1.92933 3.8473e+21 2.55846e-05 2.8023 11.7405 -0.238494 
0.0075 0.013125 0 0 0 0 0 0 
0.0105 0.013125 0 0 0 0 0 0 
0.0135 0.013125 0 0 0 0 0 0 
0.0165 0.013125 0 0 0 0 0 0 
0.0195 0.022125 0 0 0 0 0 0 
0.0225 0.022125 0 0 0 0 0 0 
0.0255 0.000375 2.00988 2.05793e+21 1.36853e-05 5.29058 3.34149 -0.0578661 
0.0195 0.000375 2.02469 2.22204e+21 1.47766e-05 2.27115 -2.39628 0.241595 
0.00375 0.0001875 2.0301 1.01688e+22 6.76223e-05 29.1051 -0.52292 1.2626 
0.00525 0.0001875 1.82309 8.64671e+21 5.75006e-05 41.5024 0.0468671 0.809597 
0.00525 0.0016875 1.97975 7.4093e+21 4.92718e-05 15.0909 0.29395 0.77311 
0.00375 0.0020625 0 0 0 0 0 0 
0.00525 0.0020625 0 0 0 0 0 0 
0.02925 0.0016875 1.94743 2.08581e+21 1.38706e-05 -2.9542 -0.814822 -1.99595 
0.01125 0.0024375 0 0 0 0 0 0 
0.01125 0.0028125 0 0 0 0 0 0 
0.01125 0.0039375 0 0 0 0 0 0 
0.01125 0.0043125 0 0 0 0 0 0 
0.01125 0.0069375 0 0 0 0 0 0 
0.01125 0.0073125 0 0 0 0 0 0 
0.01125 0.0076875 0 0 0 0 0 0 
0.01125 0.0080625 0 0 0 0 0 0 
0.01125 0.0084375 0 0 0 0 0 0 
0.01125 0.0088125 0 0 0 0 0 0 
0.01125 0.0091875 0 0 0 0 0 0 
0.0135 0.000375 1.95978 2.11838e+21 1.40872e-05 -0.231361 -3.09387 2.14917 
0.0165 0.000375 2.02388 2.13904e+21 1.42246e-05 3.98782 0.854188 1.9067 
0.00675 0.0001875 1.70614 5.34195e+21 3.55239e-05 58.4226 4.46647 0.133174 
0.00825 0.0001875 1.95689 3.66693e+21 2.43851e-05 25.1581 0.237361 2.74233 
0.00825 0.0005625 1.97108 4.14982e+21 2.75963e-05 33.5513 4.31867 0.660059 
0.01125 0.0054375 0 0 0 0 0 0 
0.01125 0.0058125 0 0 0 0 0 0 
0.01125 0.0061875 0 0 0 0 0 0 
0.01125 0.0065625 0 0 0 0 0 0 
0.01275 0.0024375 1.94604 2.11771e+21 1.40828e-05 0.694037 0.666297 0.213317 
0.01875 0.0009375 2.03226 2.2243e+21 1.47916e-05 3.36231 1.65377 -0.7269 
0.02025 0.0009375 1.91749 2.13376e+21 1.41895e-05 1.09302 3.07131 -1.02424 
0.003375 0.00046875 1.81695 1.03884e+22 6.90831e-05 24.484 0.263693 -0.476532 
0.004125 0.00046875 1.94502 1.00682e+22 6.69536e-05 34.0072 -3.8252 2.56449 
0.003375 0.00065625 1.81743 1.11872e+22 7.43949e-05 28.9051 -4.48839 -0.156811 
0.004125 0.00065625 1.96787 9.84746e+21 6.54856e-05 31.0626 0.0157639 0.0740454 
0.003375 0.00084375 1.83863 1.01661e+22 6.76043e-05 26.0342 -8.88807 1.71209 
0.004125 0.00084375 1.98176 1.07577e+22 7.15385e-05 32.5365 3.09966 0.0855294 
0.003375 0.00103125 1.92965 1.08592e+22 7.22137e-05 23.4261 -8.14388 1.80424 
0.004875 0.00084375 1.79394 8.27616e+21 5.50365e-05 32.5464 -5.21995 -0.169314 
0.005625 0.00084375 1.91239 7.48476e+21 4.97737e-05 40.5546 -2.69715 -0.17223 
0.004875 0.00103125 1.87597 8.43956e+21 5.61231e-05 36.0066 1.1645 2.94101 
0.005625 0.00103125 1.80517 7.08967e+21 4.71463e-05 33.7955 3.88058 -1.75099 
0.004125 0.00121875 2.00665 9.56489e+21 6.36065e-05 23.9386 -1.67041 0.312892 
0.005625 0.00121875 1.8929 7.35475e+21 4.89091e-05 28.7683 -6.8095 4.10115 
0.005625 0.00140625 1.98016 6.82482e+21 4.5385e-05 25.2449 -2.79675 0.120604 
0.029625 0.00571875 1.93062 2.02852e+21 1.34897e-05 1.53353 -1.53526 -2.70446 
0.028875 0.00590625 2.00067 2.01203e+21 1.338e-05 3.33511 1.96733 3.66795 
0.029625 0.00590625 1.96935 2.14042e+21 1.42338e-05 0.433138 -0.256238 1.52637 
0.024375 0.0216562 1.99401 2.35329e+21 1.56494e-05 -3.03552 -1.79245 -3.82601 
0.025125 0.0216562 2.00356 2.23169e+21 1.48408e-05 -0.725673 -4.80157 -1.23225 
0.025875 0.0216562 2.02561 2.27819e+21 1.515e-05 -2.43728 6.64137 -0.25916 
0.026625 0.0216562 2.03411 2.07076e+21 1.37705e-05 -3.40501 -2.15777 -2.88284 
0.027375 0.0216562 1.99855 2.20666e+21 1.46743e-05 1.16972 1.84493 4.82674 
0.028125 0.0216562 1.95473 2.09937e+21 1.39608e-05 -0.385234 1.96604 -0.427653 
0.028875 0.0216562 2.02666 1.93485e+21 1.28668e-05 0.299996 -1.70427 -3.65857 
0.029625 0.0216562 1.91324 2.05645e+21 1.36754e-05 -1.45269 2.53642 -4.10529 
0.007875 0.00234375 2.00593 3.07117e+21 2.04233e-05 3.18237 17.9476 -0.388304 
0.008625 0.00234375 1.985 3.27398e+21 2.1772e-05 0.363832 17.7264 1.47867 
0.007875 0.00253125 2.03467 3.0717e+21 2.04268e-05 4.72141 14.8652 2.85475 
0.008625 0.00253125 1.9583 3.23267e+21 2.14972e-05 2.66235 16.0651 -2.52657 
0.006375 0.00271875 1.9267 2.87235e+21 1.91011e-05 -4.11002 -1.1329 7.72754 
0.007125 0.00271875 1.91708 2.79742e+21 1.86028e-05 -2.17384 12.697 0.357174 
0.006375 0.00290625 1.86322 2.77466e+21 1.84515e-05 -9.31637 4.80431 -2.16262 
0.007125 0.00290625 1.94177 2.90512e+21 1.9319e-05 4.15775 13.4677 -3.01784 
0.007875 0.00271875 1.94206 3.16375e+21 2.10389e-05 4.08599 17.0665 0.729514 
0.008625 0.00271875 1.95029 3.40103e+21 2.26168e-05 5.33671 14.0899 3.49374 
0.007875 0.00290625 2.00437 2.99468e+21 1.99146e-05 -6.88668 13.3028 0.860342 
0.008625 0.00290625 1.96857 3.03752e+21 2.01995e-05 0.363202 14.4925 0.072798 
0.007875 0.00328125 1.96155 3.12153e+21 2.07581e-05 -2.95459 12.0932 -1.06794 
0.008625 0.00328125 1.85303 2.94907e+21 1.96113e-05 -2.71438 15.4036 -1.66689 
0.006375 0.00346875 2.07934 2.75907e+21 1.83478e-05 1.87305 3.25332 -0.704465 
0.006375 0.00365625 2.07414 2.77428e+21 1.8449e-05 -1.60227 2.5479 -0.422618 
0.007125 0.00365625 1.99837 2.7116e+21 1.80321e-05 -2.19023 8.88895 3.21595 
0.006375 0.00384375 1.98796 2.74385e+21 1.82466e-05 0.634493 7.46699 -0.108669 
0.006375 0.00403125 1.98915 2.83732e+21 1.88682e-05 4.12223 5.51973 0.755152 
0.007125 0.00403125 2.00867 2.80187e+21 1.86325e-05 -1.3575 2.9128 -2.24133 
0.007875 0.00384375 1.97972 2.74127e+21 1.82295e-05 -1.73002 13.4417 -0.331182 
0.008625 0.00384375 1.97255 2.89144e+21 1.92281e-05 2.58167 14.7678 -1.53463 
0.008625 0.00403125 2.0164 2.86083e+21 1.90245e-05 -1.37131 6.65316 2.98527 
0.006375 0.00421875 2.00708 2.77158e+21 1.8431e-05 -2.24896 1.40552 -3.39605 
0.006375 0.00440625 1.94832 2.77404e+21 1.84473e-05 1.79836 2.71224 0.995973 
0.007125 0.00440625 1.96394 2.8177e+21 1.87377e-05 0.615135 3.39943 1.65694 
0.007875 0.00440625 1.95072 2.64304e+21 1.75762e-05 1.34447 9.99985 2.38414 
0.008625 0.00440625 1.95552 2.87935e+21 1.91477e-05 2.97964 9.38418 0.351653 
0.006375 0.00459375 2.09881 2.78092e+21 1.84931e-05 -2.27747 2.45124 1.11208 
0.006375 0.00478125 2.06945 2.55203e+21 1.6971e-05 2.51809 2.39271 0.270726 
0.007875 0.00459375 2.01833 2.67313e+21 1.77763e-05 -4.38811 6.54163 -1.01611 
0.008625 0.00459375 1.98525 2.66327e+21 1.77108e-05 -2.68385 5.95637 -4.27001 
0.006375 0.00496875 1.99315 2.6351e+21 1.75234e-05 -0.49841 9.47745 2.30314 
0.006375 0.00515625 1.98909 2.43639e+21 1.6202e-05 -1.90691 5.63774 1.03647 
0.006375 0.00571875 1.94997 2.64945e+21 1.76189e-05 0.0554045 3.08378 -0.469193 
0.006375 0.00590625 2.0133 2.72343e+21 1.81108e-05 3.36419 6.43281 2.22781 
0.006375 0.00609375 1.97666 2.54213e+21 1.69051e-05 -5.88822 7.32648 -0.703699 
0.006375 0.00646875 1.97424 2.59159e+21 1.7234e-05 -4.13954 2.53214 -0.739849 
0.006375 0.00684375 2.0512 2.62012e+21 1.74238e-05 0.469703 7.40095 1.45917 
0.006375 0.00703125 2.04654 2.59552e+21 1.72602e-05 -2.15474 4.00531 1.74326 
0.006375 0.00721875 1.9883 2.60748e+21 1.73397e-05 1.31939 0.34749 -0.466152 
0.006375 0.00740625 1.93816 2.59017e+21 1.72247e-05 3.51197 3.1356 1.60828 
0.006375 0.00759375 1.99922 2.57373e+21 1.71153e-05 0.427337 1.21254 -0.60091 
0.006375 0.00796875 2.02456 2.50054e+21 1.66286e-05 1.47957 0.757961 -0.0114454 
0.006375 0.00815625 1.96973 2.48989e+21 1.65578e-05 2.16952 4.96279 -1.55229 
0.010125 0.00759375 0 0 0 0 0 0 
0.010125 0.00778125 0 0 0 0 0 0 
0.010125 0.00796875 0 0 0 0 0 0 
0.010125 0.00815625 0 0 0 0 0 0 
0.006375 0.00834375 1.93126 2.44665e+21 1.62703e-05 3.56908 2.9731 0.552038 
0.006375 0.00853125 1.97858 2.55456e+21 1.69878e-05 1.05465 1.6189 -0.134813 
0.006375 0.00890625 1.98096 2.38267e+21 1.58448e-05 1.05996 0.443665 -1.31717 
0.006375 0.00946875 1.97837 2.41369e+21 1.60511e-05 4.15897 1.48813 1.46471 
0.010125 0.00946875 1.84332 2.33237e+21 1.55102e-05 -3.16223 0.808211 -2.35347 
0.010875 0.00946875 2.00656 2.00406e+21 1.3327e-05 6.91484 -0.333108 2.20389 
0.011625 0.00946875 2.0722 2.11349e+21 1.40547e-05 3.48408 -0.408838 -4.44315 
0.014625 0.00496875 2.05335 2.02722e+21 1.3481e-05 -0.485068 -3.47853 -1.07556 
0.013875 0.00515625 1.9567 2.10495e+21 1.39979e-05 -3.45678 1.20591 -0.864183 
0.014625 0.00515625 1.98666 2.03691e+21 1.35454e-05 1.76533 -0.436958 1.66604 
0.015375 0.00534375 2.0322 2.08616e+21 1.3873e-05 3.26509 0.177942 2.1386 
0.016125 0.00534375 1.97976 2.0205e+21 1.34364e-05 3.34557 0.907397 -1.69173 
0.014625 0.00628125 1.9913 2.19101e+21 1.45702e-05 -0.0432996 -2.19654 -3.09592 
0.015375 0.00665625 1.93483 2.03867e+21 1.35572e-05 2.77249 -1.64099 1.59361 
0.016875 0.00684375 1.95876 2.00928e+21 1.33617e-05 1.28141 2.23142 1.18171 
0.012375 0.00946875 1.93179 2.07562e+21 1.38029e-05 3.63154 3.93663 -1.37923 
0.019875 0.00459375 2.09375 2.09169e+21 1.39098e-05 4.11163 2.00338 3.51414 
0.020625 0.00459375 1.9817 2.03749e+21 1.35493e-05 4.80339 1.11434 -0.620539 
0.019875 0.00478125 1.95601 2.12329e+21 1.41199e-05 4.33688 1.84075 -0.313827 
0.018375 0.00571875 1.94646 2.0879e+21 1.38845e-05 4.10363 0.626768 -0.275595 
0.019875 0.00590625 1.99723 2.24581e+21 1.49346e-05 4.57781 -0.282684 1.41707 
0.020625 0.00590625 1.92934 2.1021e+21 1.39789e-05 2.30228 1.90459 -0.350188 
0.021375 0.00534375 2.01342 2.05863e+21 1.36899e-05 2.1465 -1.53101 -1.68253 
0.022125 0.00534375 2.00077 1.97603e+21 1.31406e-05 4.09826 -2.77218 1.21143 
0.021375 0.00553125 1.9631 2.04204e+21 1.35796e-05 -3.38379 -1.1341 -3.39599 
0.022125 0.00553125 2.02022 1.99703e+21 1.32802e-05 3.82193 3.24478 0.621719 
0.019875 0.00609375 1.92124 2.05042e+21 1.36353e-05 1.24043 3.79314 0.544788 
0.020625 0.00609375 2.01784 2.08013e+21 1.38329e-05 2.5476 0.756041 0.206845 
0.020625 0.00628125 2.02113 2.173e+21 1.44504e-05 1.28629 0.810228 -1.39247 
0.019875 0.00684375 2.00864 2.0407e+21 1.35706e-05 1.68093 0.257032 0.49733 
0.018375 0.0165937 0 0 0 0 0 0 
0.018375 0.0167812 0 0 0 0 0 0 
0.018375 0.0188437 0 0 0 0 0 0 
0.018375 0.0190312 0 0 0 0 0 0 
0.018375 0.0192187 0 0 0 0 0 0 
0.018375 0.0194062 0 0 0 0 0 0 
0.019875 0.0216562 1.94079 2.14586e+21 1.427e-05 2.27003 -0.993526 2.57774 
0.020625 0.0216562 2.10975 2.15659e+21 1.43413e-05 -0.168923 3.78981 -2.53371 
0.021375 0.0216562 2.10431 2.1852e+21 1.45316e-05 5.66397 -0.494185 0.914592 
0.022875 0.0216562 1.93448 2.0636e+21 1.3723e-05 0.493917 -2.07547 -0.526163 
0.023625 0.0216562 1.95553 2.11367e+21 1.40559e-05 -0.371418 0.476773 -1.63525 
0.00975 0.0016875 2.03388 3.44988e+21 2.29417e-05 1.25547 5.83496 -0.913 
0.01125 0.0016875 0 0 0 0 0 0 
0.00975 0.0020625 1.97384 3.32736e+21 2.21269e-05 3.15494 13.7518 1.31163 
0.01125 0.0020625 0 0 0 0 0 0 
0.01125 0.0031875 0 0 0 0 0 0 
0.01125 0.0035625 0 0 0 0 0 0 
0.01125 0.0046875 0 0 0 0 0 0 
0.01125 0.0050625 0 0 0 0 0 0 
0.01275 0.0016875 1.89677 2.11578e+21 1.40699e-05 -4.08416 0.929513 2.12742 
0.01275 0.0020625 1.98064 2.11435e+21 1.40604e-05 1.6038 4.11847 0.0941961 
0.02475 0.0009375 2.07442 2.15489e+21 1.433e-05 -0.0579279 1.34174 3.56595 
0.02625 0.0009375 2.02331 2.04926e+21 1.36275e-05 0.137902 1.84462 1.55122 
0.02625 0.0013125 1.93309 2.01994e+21 1.34326e-05 1.14189 -1.97966 -1.27417 
0.025875 0.00384375 1.97727 2.02577e+21 1.34714e-05 0.970713 1.39418 0.0806965 
0.026625 0.00384375 2.05538 2.12588e+21 1.41371e-05 0.404205 0.280136 -1.3621 
0.025875 0.00403125 2.00494 2.1e+21 1.3965e-05 -3.00502 1.67189 -2.55949 
0.026625 0.00403125 2.04636 1.98209e+21 1.31809e-05 2.138 1.53056 0.256269 
0.027375 0.00384375 2.07204 1.89033e+21 1.25707e-05 -3.05344 -0.61355 -3.61007 
0.028125 0.00384375 1.98425 2.08466e+21 1.3863e-05 -2.45887 2.10906 -0.977859 
0.027375 0.00403125 2.00451 2.10842e+21 1.4021e-05 -0.821133 0.384179 1.58752 
0.028125 0.00403125 1.93494 2.04947e+21 1.36289e-05 1.38386 1.3781 -1.66184 
0.027375 0.00421875 2.07879 2.01203e+21 1.338e-05 3.50903 1.29852 -2.143 
0.028125 0.00421875 2.04808 1.99862e+21 1.32908e-05 -0.570132 -0.892908 3.28652 
0.028125 0.00440625 1.98466 2.03429e+21 1.35281e-05 0.157649 2.76907 -1.48039 
0.028875 0.00421875 1.84434 2.06032e+21 1.37011e-05 2.61459 -0.730763 -2.90576 
0.029625 0.00421875 1.99843 2.08447e+21 1.38617e-05 -0.528687 2.1011 -3.52353 
0.028875 0.00440625 2.06565 2.01118e+21 1.33743e-05 -1.55359 1.35756 -3.95831 
0.029625 0.00440625 2.06081 2.20896e+21 1.46896e-05 -0.357659 -3.64005 1.39221 
0.024375 0.00496875 1.94343 2.07733e+21 1.38142e-05 1.78375 1.58262 -2.83987 
0.025125 0.00515625 2.00936 2.12251e+21 1.41147e-05 2.38117 0.490227 0.33568 
0.028875 0.00459375 2.0638 2.12126e+21 1.41064e-05 -4.09267 0.0522427 -1.11606 
0.029625 0.00459375 1.87959 2.23459e+21 1.486e-05 3.02011 -3.64005 0.381353 
0.028875 0.00478125 2.09728 2.13749e+21 1.42143e-05 3.33797 -0.470625 1.98154 
0.029625 0.00478125 2.04881 2.01913e+21 1.34272e-05 -2.03188 1.70012 0.393506 
0.024375 0.00534375 1.99281 2.08404e+21 1.38589e-05 -0.462539 1.91677 -0.00780638 
0.025125 0.00534375 2.00311 1.99509e+21 1.32673e-05 6.63761 4.6694 0.587599 
0.024375 0.00553125 2.06409 2.17709e+21 1.44776e-05 0.305829 4.24984 0.373064 
0.026625 0.00571875 2.05409 2.14331e+21 1.4253e-05 1.31816 -0.124343 0.0881467 
0.028125 0.00609375 2.00819 2.09685e+21 1.3944e-05 0.73564 -3.66359 -3.14812 
0.028875 0.00609375 1.93273 2.01513e+21 1.34006e-05 5.26137 -0.121715 -0.64806 
0.029625 0.00609375 1.93707 2.15999e+21 1.4364e-05 2.68671 -1.96722 0.839923 
0.006375 0.00084375 1.88733 5.41908e+21 3.60368e-05 46.7383 3.06288 5.98424 
0.007125 0.00084375 1.98585 3.98383e+21 2.64924e-05 48.3357 11.3679 -1.41253 
0.006375 0.00103125 1.75704 5.55321e+21 3.69289e-05 45.1187 7.32975 0.847755 
0.007125 0.00103125 2.01243 4.54354e+21 3.02145e-05 42.2709 10.1122 -1.75651 
0.006375 0.00121875 1.78505 5.32105e+21 3.5385e-05 44.9896 9.20978 0.135352 
0.007125 0.00121875 1.88457 4.10455e+21 2.72952e-05 36.9624 16.6871 3.59876 
0.006375 0.00140625 1.80509 4.72425e+21 3.14163e-05 31.738 18.4457 0.957954 
0.007125 0.00140625 1.72743 3.71019e+21 2.46728e-05 34.9997 19.2648 -6.95907 
0.007875 0.00159375 1.92438 3.74238e+21 2.48868e-05 17.9505 15.1531 0.221814 
0.008625 0.00159375 1.91909 3.57195e+21 2.37535e-05 5.60477 9.45648 1.66017 
0.007875 0.00178125 1.93368 3.26585e+21 2.17179e-05 17.1967 19.2779 1.4229 
0.008625 0.00178125 1.99683 3.41198e+21 2.26897e-05 3.9364 19.5266 -2.69211 
0.007875 0.00346875 2.07192 2.68199e+21 1.78352e-05 -0.189994 13.4004 -0.595813 
0.007875 0.00365625 2.03787 2.73017e+21 1.81557e-05 -2.35957 8.63851 0.935831 
0.008625 0.00365625 1.95991 2.86328e+21 1.90408e-05 0.789092 14.5616 -1.13362 
0.013875 0.00346875 2.07369 2.19257e+21 1.45806e-05 -2.09918 -0.915552 -0.265877 
0.014625 0.00346875 2.0718 2.15668e+21 1.43419e-05 2.33882 -3.5357 -2.1176 
0.013875 0.00365625 2.0777 2.1699e+21 1.44298e-05 1.42106 -2.14252 0.0558491 
0.014625 0.00365625 1.96352 2.14823e+21 1.42857e-05 -0.513107 3.05752 1.91076 
0.013875 0.00384375 2.02859 2.067e+21 1.37455e-05 -2.83154 1.90776 0.462741 
0.014625 0.00384375 2.1646 2.10233e+21 1.39805e-05 1.94243 5.48718 -0.916647 
0.013875 0.00403125 2.00341 2.14211e+21 1.42451e-05 4.55046 -0.146288 1.78727 
0.014625 0.00403125 1.90439 2.09439e+21 1.39277e-05 0.548524 1.1442 0.419017 
0.016875 0.00459375 1.96379 1.97836e+21 1.31561e-05 -1.21721 0.785882 -0.320155 
0.017625 0.00459375 2.00751 2.11633e+21 1.40736e-05 2.06552 -3.70668 0.47552 
0.016875 0.00478125 2.00499 2.13749e+21 1.42143e-05 -1.91489 -0.576616 -2.82297 
0.017625 0.00478125 1.98887 2.04044e+21 1.35689e-05 4.1832 0.373584 2.74545 
0.015375 0.00496875 2.02748 2.03633e+21 1.35416e-05 -0.379882 -1.8992 -2.05263 
0.015375 0.00515625 1.96389 2.19056e+21 1.45672e-05 1.807 -1.41497 -1.06852 
0.016875 0.00496875 1.96254 2.16616e+21 1.4405e-05 -0.966602 -2.16433 -0.142294 
0.017625 0.00496875 2.03015 1.94294e+21 1.29206e-05 2.94095 0.137153 -1.05066 
0.016875 0.00515625 1.96359 2.11154e+21 1.40417e-05 -1.78614 2.39573 0.00508282 
0.017625 0.00515625 2.0138 2.10715e+21 1.40125e-05 -0.623726 -3.18515 0.473895 
0.014625 0.00571875 1.95093 2.02852e+21 1.34897e-05 3.07091 -1.6513 1.93575 
0.016875 0.00571875 2.00178 2.06811e+21 1.37529e-05 4.09287 -3.85233 -0.124728 
0.017625 0.00571875 1.97617 2.1156e+21 1.40688e-05 2.32003 0.0406523 1.67412 
0.016875 0.00590625 2.00373 2.1615e+21 1.4374e-05 -1.43593 -1.08733 0.0700358 
0.017625 0.00590625 2.03671 2.0676e+21 1.37496e-05 3.31484 1.5381 0.133361 
0.012375 0.00684375 2.10136 2.38136e+21 1.58361e-05 -4.72125 6.2205 -1.28702 
0.012375 0.00703125 1.79549 2.05227e+21 1.36476e-05 -0.375002 -5.93953 -0.0467056 
0.018375 0.00346875 1.93468 1.96092e+21 1.30401e-05 -0.332367 0.486417 0.535945 
0.019125 0.00346875 1.90688 2.00659e+21 1.33439e-05 3.31883 0.631234 -1.29735 
0.018375 0.00365625 1.94483 2.1668e+21 1.44093e-05 3.98245 -4.43698 -0.720032 
0.019125 0.00365625 1.99161 1.98727e+21 1.32153e-05 1.75257 -7.66104 1.64769 
0.021375 0.00384375 1.96607 2.05816e+21 1.36868e-05 -1.32602 -1.72139 0.562286 
0.022125 0.00384375 2.04522 2.23777e+21 1.48812e-05 4.40774 1.21557 1.76462 
0.021375 0.00403125 2.04619 2.12527e+21 1.4133e-05 5.35532 0.584512 -1.19553 
0.022125 0.00403125 2.01678 2.15334e+21 1.43197e-05 3.45294 -2.16664 0.134646 
0.021375 0.00421875 1.96268 2.173e+21 1.44504e-05 0.666225 0.818844 0.0128941 
0.022125 0.00421875 2.03053 2.04154e+21 1.35763e-05 -0.482413 1.01965 3.84334 
0.021375 0.00440625 1.99924 2.10621e+21 1.40063e-05 4.63626 1.7286 -4.43316 
0.022125 0.00440625 2.03247 2.02402e+21 1.34597e-05 3.16573 -3.14684 -1.96401 
0.018375 0.00496875 2.07638 2.05911e+21 1.36931e-05 -0.144117 1.33981 -2.99103 
0.018375 0.00515625 1.92256 2.03471e+21 1.35308e-05 -2.2833 -1.70829 -1.61783 
0.019125 0.00515625 2.1236 2.083e+21 1.3852e-05 3.39993 -3.66003 0.440134 
0.021375 0.00459375 2.04843 2.07445e+21 1.37951e-05 0.0597191 -0.573583 -1.18077 
0.022125 0.00459375 2.0862 2.15821e+21 1.43521e-05 2.66167 -1.63565 -0.764872 
0.021375 0.00478125 2.10775 2.08778e+21 1.38837e-05 0.747312 -1.91094 0.368956 
0.022125 0.00478125 1.95826 1.99783e+21 1.32856e-05 -1.18185 -1.48232 1.96889 
0.022875 0.00459375 2.07223 2.09169e+21 1.39098e-05 5.38968 -1.79736 1.94348 
0.023625 0.00459375 1.91743 2.23459e+21 1.486e-05 4.0727 -1.46847 -3.02198 
0.022875 0.00478125 2.01285 2.19193e+21 1.45763e-05 -1.05557 -0.27478 -3.01474 
0.023625 0.00478125 2.08269 2.12092e+21 1.41041e-05 2.49059 -0.495588 6.03675 
0.019125 0.00534375 2.04271 2.07981e+21 1.38307e-05 3.45353 -1.17316 -1.96031 
0.019125 0.00553125 1.97076 2.12184e+21 1.41103e-05 3.44406 -0.852148 2.21592 
0.019875 0.00553125 1.95704 2.08501e+21 1.38653e-05 2.14886 -0.295369 -6.2683 
0.022125 0.00571875 2.00897 2.17497e+21 1.44636e-05 1.16527 -0.335298 0.916086 
0.023625 0.00590625 1.91431 1.98521e+21 1.32016e-05 3.53971 4.26186 -0.0974227 
0.018375 0.0132188 0 0 0 0 0 0 
0.018375 0.0134063 0 0 0 0 0 0 
0.018375 0.0169687 0 0 0 0 0 0 
0.018375 0.0171562 0 0 0 0 0 0 
0.018375 0.0173437 0 0 0 0 0 0 
0.018375 0.0175312 0 0 0 0 0 0 
0.018375 0.0180937 0 0 0 0 0 0 
0.018375 0.0182812 0 0 0 0 0 0 
0.018375 0.0184687 0 0 0 0 0 0 
0.018375 0.0186562 0 0 0 0 0 0 
0.018375 0.0195938 0 0 0 0 0 0 
0.018375 0.0197812 0 0 0 0 0 0 
0.018375 0.0199687 0 0 0 0 0 0 
0.018375 0.0201562 0 0 0 0 0 0 
0.018375 0.0203437 0 0 0 0 0 0 
0.018375 0.0205312 0 0 0 0 0 0 
0.018375 0.0207187 0 0 0 0 0 0 
0.018375 0.0209062 0 0 0 0 0 0 
0.018375 0.0210937 0 0 0 0 0 0 
0.018375 0.0212812 0 0 0 0 0 0 
0.010125 0.00646875 0 0 0 0 0 0 
0.010125 0.00665625 0 0 0 0 0 0 
0.0039375 0.000984375 1.71376 1.02096e+22 6.7894e-05 31.0114 -3.35927 7.70971 
0.0043125 0.000984375 1.99945 9.79573e+21 6.51416e-05 26.0205 -7.01552 -4.44407 
0.0039375 0.00107813 2.02152 9.95169e+21 6.61787e-05 33.5883 -3.53638 2.47462 
0.0043125 0.00107813 1.91652 9.44781e+21 6.28279e-05 37.5877 -0.38471 3.79958 
0.0294375 0.00885938 2.00504 2.0082e+21 1.33545e-05 -3.32922 1.94962 4.26546 
0.0298125 0.00885938 1.96511 1.91111e+21 1.27089e-05 -1.44523 6.51472 2.74852 
0.0294375 0.00895312 1.88518 1.9265e+21 1.28112e-05 -0.741434 1.2686 -0.785813 
0.0298125 0.00895312 2.05447 2.14392e+21 1.42571e-05 4.9636 3.72747 -5.22516 
0.0286875 0.0114844 2.01957 2.10106e+21 1.3972e-05 0.219404 1.50798 -3.23865 
0.0290625 0.0114844 1.96461 2.14442e+21 1.42604e-05 -2.21588 -0.0582798 5.58072 
0.0286875 0.0115781 1.98718 2.04885e+21 1.36249e-05 -0.577203 1.35119 1.88116 
0.0290625 0.0115781 1.96214 2.16615e+21 1.44049e-05 -1.64065 5.92663 1.62051 
0.0271875 0.0141094 2.11058 2.02781e+21 1.34849e-05 4.40184 -3.55307 0.455498 
0.0275625 0.0141094 1.96727 1.97647e+21 1.31435e-05 -0.559006 0.333008 -5.2905 
0.0271875 0.0142031 2.03612 2.17698e+21 1.44769e-05 -0.651956 5.53525 -0.231717 
0.0275625 0.0142031 1.86089 1.96024e+21 1.30356e-05 1.39192 -2.81577 -2.87361 
0.0249375 0.0142969 1.98566 2.12471e+21 1.41293e-05 4.09407 1.23949 -1.59681 
0.0253125 0.0142969 2.05852 2.17854e+21 1.44873e-05 1.41685 -1.48628 0.662205 
0.0249375 0.0143906 1.97631 1.98503e+21 1.32005e-05 0.948187 2.73071 1.2174 
0.0253125 0.0143906 1.93321 2.09199e+21 1.39117e-05 -1.61266 -2.51096 -3.06327 
0.0264375 0.0142969 1.90509 2.1817e+21 1.45083e-05 -2.42195 1.33658 0.60022 
0.0268125 0.0142969 1.96008 2.1722e+21 1.44452e-05 -3.50011 -3.5025 -0.767328 
0.0264375 0.0143906 2.0673 1.97874e+21 1.31586e-05 1.73865 -2.44755 1.74958 
0.0268125 0.0143906 2.05354 2.26501e+21 1.50623e-05 -1.06034 -0.269351 -3.9305 
0.0271875 0.0144844 2.00642 2.06907e+21 1.37593e-05 -4.43995 3.05249 -1.12839 
0.0275625 0.0144844 2.09481 1.96593e+21 1.30734e-05 1.16278 4.08299 -0.073519 
0.0271875 0.0145781 2.0077 1.99987e+21 1.32991e-05 -6.57961 -2.57671 2.19405 
0.0275625 0.0145781 1.94024 2.26072e+21 1.50338e-05 2.08939 0.0350505 0.667403 
0.0286875 0.0148594 1.96782 2.09302e+21 1.39186e-05 0.948803 -0.150135 -2.18003 
0.0290625 0.0148594 1.90579 2.1113e+21 1.40402e-05 0.867672 -1.86896 -1.21788 
0.0286875 0.0149531 2.01701 1.95274e+21 1.29857e-05 1.04327 3.77359 1.70817 
0.0290625 0.0149531 1.94692 2.11017e+21 1.40327e-05 1.75727 1.11536 -1.50596 
0.0241875 0.0154219 1.88465 2.11355e+21 1.40551e-05 -2.29882 -3.40868 1.98124 
0.0245625 0.0154219 1.93459 2.11942e+21 1.40942e-05 1.17173 -1.74924 -0.774875 
0.0241875 0.0155156 2.10704 2.13579e+21 1.4203e-05 -1.87096 -0.858578 3.53075 
0.0245625 0.0155156 2.08932 2.18248e+21 1.45135e-05 -0.154142 -0.222788 1.81333 
0.0264375 0.0154219 2.00224 2.03136e+21 1.35085e-05 3.93606 -1.29199 3.82148 
0.0268125 0.0154219 1.97336 2.11649e+21 1.40746e-05 3.05911 0.308177 1.30772 
0.0264375 0.0155156 2.0307 2.10078e+21 1.39702e-05 4.94906 -4.17869 -0.223084 
0.0268125 0.0155156 2.12395 1.98115e+21 1.31747e-05 2.35813 3.65982 -2.15941 
0.0294375 0.0154219 2.09982 2.02842e+21 1.3489e-05 4.31577 1.18452 -2.07595 
0.0298125 0.0154219 1.93621 2.06658e+21 1.37428e-05 -1.32084 -4.68214 3.30289 
0.0294375 0.0155156 1.92567 2.01617e+21 1.34075e-05 -0.0303528 3.88358 1.48157 
0.0298125 0.0155156 1.99231 2.09495e+21 1.39314e-05 1.57783 1.94156 2.57139 
0.0294375 0.0156094 1.96888 2.08526e+21 1.3867e-05 2.68876 -2.94852 1.1813 
0.0298125 0.0156094 1.85128 2.05046e+21 1.36356e-05 0.0604221 -1.1183 -3.404 
0.0294375 0.0157031 2.05953 1.96903e+21 1.3094e-05 -1.27757 -3.49767 -2.14872 
0.0298125 0.0157031 1.97627 2.04399e+21 1.35925e-05 -1.12536 -3.04168 2.17544 
0.0264375 0.0163594 2.08298 2.07822e+21 1.38201e-05 -0.973532 3.23907 -2.97739 
0.0264375 0.0164531 1.94686 1.96732e+21 1.30827e-05 1.13544 -2.57066 -0.496976 
0.0268125 0.0164531 1.95267 2.08288e+21 1.38512e-05 3.35413 1.22441 -0.548945 
0.0271875 0.0159844 1.92669 2.09865e+21 1.3956e-05 4.64606 -2.2484 -1.22324 
0.0275625 0.0159844 1.83047 2.01935e+21 1.34287e-05 2.10158 -1.21824 0.582056 
0.0271875 0.0160781 2.02259 2.06107e+21 1.37061e-05 5.49276 -1.38191 -2.79361 
0.0275625 0.0160781 2.02494 2.15399e+21 1.4324e-05 0.461476 1.98792 3.28281 
0.0279375 0.0159844 2.04311 1.99386e+21 1.32592e-05 2.72674 -2.32154 -0.738262 
0.0283125 0.0159844 1.96168 2.17229e+21 1.44457e-05 -4.44862 2.59267 1.57575 
0.0279375 0.0160781 1.90817 2.04699e+21 1.36125e-05 -1.76067 0.809677 -1.389 
0.0283125 0.0160781 1.91181 2.10049e+21 1.39683e-05 -0.832255 -3.64876 3.85162 
0.0264375 0.0169219 1.90824 2.01449e+21 1.33963e-05 -0.553194 1.46476 0.436253 
0.0268125 0.0169219 1.99938 1.99576e+21 1.32718e-05 -1.59003 -0.69352 -1.98541 
0.0264375 0.0170156 1.98881 2.02201e+21 1.34464e-05 0.593496 0.108889 -2.04423 
0.0268125 0.0170156 1.966 2.11779e+21 1.40833e-05 2.21439 2.77417 1.56615 
0.0256875 0.0171094 1.97308 1.98976e+21 1.32319e-05 3.63082 4.41467 -1.95002 
0.0260625 0.0171094 2.07571 2.08766e+21 1.3883e-05 -1.59584 2.50236 0.779433 
0.0260625 0.0172031 2.00648 2.05523e+21 1.36673e-05 4.42164 3.08529 -1.35633 
0.0271875 0.0167344 1.99645 1.98566e+21 1.32046e-05 5.77661 -1.72477 -1.11212 
0.0275625 0.0167344 1.91784 1.96401e+21 1.30607e-05 0.82539 3.80775 -1.88516 
0.0271875 0.0168281 1.9861 2.17367e+21 1.44549e-05 -0.246819 0.194186 1.37007 
0.0275625 0.0168281 1.87707 2.13063e+21 1.41687e-05 0.654121 -3.48871 -3.47685 
0.0286875 0.0167344 1.99586 2.09116e+21 1.39062e-05 -0.106254 1.65708 1.5824 
0.0290625 0.0167344 2.02919 2.06411e+21 1.37263e-05 -0.0864946 0.729429 -3.43984 
0.0286875 0.0168281 2.00696 2.05261e+21 1.36499e-05 -1.02367 0.993607 1.46727 
0.0290625 0.0168281 2.03302 2.21671e+21 1.47411e-05 0.627047 0.550528 1.35616 
0.0286875 0.0169219 1.94435 2.07602e+21 1.38055e-05 3.70766 0.301457 0.608164 
0.0290625 0.0169219 2.03897 2.175e+21 1.44638e-05 1.3172 -2.40413 0.652521 
0.0286875 0.0170156 2.11375 2.09917e+21 1.39595e-05 -3.05111 -1.49257 1.23963 
0.0290625 0.0170156 2.00868 2.07256e+21 1.37825e-05 2.34155 -1.01144 -0.109643 
0.0256875 0.0172969 2.04512 1.99698e+21 1.32799e-05 -3.21018 3.8998 -0.178228 
0.0260625 0.0172969 1.97102 1.99698e+21 1.32799e-05 2.50719 -4.10665 -1.07026 
0.0256875 0.0173906 2.01258 2.09034e+21 1.39008e-05 -0.207982 -1.34346 2.41491 
0.0260625 0.0173906 1.97705 2.11377e+21 1.40566e-05 -5.15688 -1.46871 4.23487 
0.0264375 0.0172969 2.04788 2.07027e+21 1.37673e-05 -0.621832 2.98061 1.3361 
0.0268125 0.0172969 1.96978 2.0755e+21 1.38021e-05 0.640515 0.435169 0.210587 
0.0264375 0.0173906 1.96258 2.19187e+21 1.45759e-05 -1.33752 -0.594941 3.85713 
0.0268125 0.0173906 2.08182 1.92895e+21 1.28275e-05 2.98084 0.468957 -2.00866 
0.0253125 0.0176719 1.94343 1.99816e+21 1.32877e-05 -4.65133 -4.27663 1.52582 
0.0249375 0.0177656 1.9999 1.99271e+21 1.32515e-05 -2.07506 1.96264 0.703308 
0.0253125 0.0177656 2.00294 2.03093e+21 1.35057e-05 0.918009 2.04304 1.97091 
0.0241875 0.0178594 2.09418 2.14448e+21 1.42608e-05 0.39991 -0.246857 0.634992 
0.0245625 0.0178594 1.97245 2.00506e+21 1.33337e-05 -3.07131 1.26292 0.40423 
0.0241875 0.0179531 1.98398 1.97694e+21 1.31467e-05 -0.823535 -1.2549 0.594593 
0.0245625 0.0179531 2.00957 2.10302e+21 1.39851e-05 -1.82158 1.09274 1.4713 
0.0249375 0.0178594 1.93938 2.10899e+21 1.40248e-05 2.3433 0.979167 2.58677 
0.0253125 0.0178594 2.00942 2.05069e+21 1.36371e-05 -1.47576 -2.02936 -2.49663 
0.0249375 0.0179531 2.05783 2.02233e+21 1.34485e-05 -0.906487 0.449178 -1.3309 
0.0253125 0.0179531 1.9025 2.07528e+21 1.38006e-05 -0.419102 1.23327 -0.702906 
0.0264375 0.0178594 1.99792 2.20785e+21 1.46822e-05 -2.11303 -0.207913 -0.267003 
0.0268125 0.0178594 1.92027 2.10139e+21 1.39742e-05 1.19424 -2.13034 -3.12871 
0.0264375 0.0179531 2.10572 2.09293e+21 1.3918e-05 1.87212 0.454965 4.27545 
0.0268125 0.0179531 1.95655 2.01981e+21 1.34317e-05 0.207965 0.4152 -1.18373 
0.0286875 0.0176719 2.10371 1.95717e+21 1.30152e-05 -2.82345 3.28402 -2.12835 
0.0290625 0.0176719 2.01209 2.09038e+21 1.3901e-05 0.885769 0.367119 1.05355 
0.0286875 0.0177656 2.06521 2.03348e+21 1.35226e-05 -1.40129 0.0243752 1.58111 
0.0290625 0.0177656 1.98901 2.01819e+21 1.3421e-05 -3.90242 0.105646 0.800853 
0.0290625 0.0178594 1.98097 2.02027e+21 1.34348e-05 -2.32626 -2.64519 -3.49643 
0.0286875 0.0179531 1.90149 2.07528e+21 1.38006e-05 -0.36841 -2.48646 -2.15605 
0.0290625 0.0179531 2.06797 2.1005e+21 1.39683e-05 -0.682901 -0.297737 1.02363 
0.0241875 0.0180469 1.93155 2.11718e+21 1.40793e-05 -3.19758 -1.06461 3.1431 
0.0245625 0.0180469 2.06071 2.15732e+21 1.43462e-05 -1.82304 1.03442 0.714304 
0.0241875 0.0181406 1.99966 2.10874e+21 1.40231e-05 4.18338 1.78969 0.283242 