ITEM: TIMESTEP
510000
ITEM: NUMBER OF SURFS
78
ITEM: BOX BOUNDS oo ao pp
0 0.35
0 0.03
-0.1 0.1
ITEM: SURFS id v1x v1y v2x v2y 
1 0.00635 0.00159 0.00318 0.00159 
9 0 0.0254 0.06509 0.0254 
17 0.18459 0.0127 0.17459 0.0127 
25 0.07459 0.0147 0.07509 0.0147 
33 0.09459 0.0147 0.09509 0.0147 
41 0.11459 0.0147 0.11509 0.0147 
49 0.13459 0.0147 0.13509 0.0147 
57 0.15459 0.0147 0.15509 0.0147 
65 0.18519 0.00084 0.18569 0.00084 
73 0.18519 0.00326 0.18569 0.00326 
2 0.00635 0.0127 0.00635 0.00159 
10 0 0 0 0.0254 
18 0.18459 0.0045 0.18459 0.0127 
26 0.07459 0.0127 0.07459 0.0147 
34 0.09459 0.0127 0.09459 0.0147 
42 0.11459 0.0127 0.11459 0.0147 
50 0.13459 0.0127 0.13459 0.0147 
58 0.15459 0.0127 0.15459 0.0147 
66 0.18519 0.00036 0.18519 0.00084 
74 0.18519 0.00278 0.18519 0.00326 
3 0.01905 0.0127 0.00635 0.0127 
11 0.00318 0 0 0 
19 0.18519 0.0045 0.18459 0.0045 
27 0.08509 0.0127 0.08459 0.0127 
35 0.10509 0.0127 0.10459 0.0127 
43 0.12509 0.0127 0.12459 0.0127 
51 0.14509 0.0127 0.14459 0.0127 
59 0.16509 0.0127 0.16459 0.0127 
67 0.18569 0.00157 0.18519 0.00157 
75 0.18569 0.00399 0.18519 0.00399 
4 0.01905 0.02159 0.01905 0.0127 
12 0.00318 0.00159 0.00318 0 
20 0.18519 0.02223 0.18519 0.0045 
28 0.08509 0.0147 0.08509 0.0127 
36 0.10509 0.0147 0.10509 0.0127 
44 0.12509 0.0147 0.12509 0.0127 
52 0.14509 0.0147 0.14509 0.0127 
60 0.16509 0.0147 0.16509 0.0127 
68 0.18569 0.00205 0.18569 0.00157 
76 0.18569 0.00447 0.18569 0.00399 
5 0.0635 0.02159 0.01905 0.02159 
13 0.00953 0 0.00953 0.00953 
21 0.17459 0.02223 0.18519 0.02223 
29 0.08459 0.0147 0.08509 0.0147 
37 0.10459 0.0147 0.10509 0.0147 
45 0.12459 0.0147 0.12509 0.0147 
53 0.14459 0.0147 0.14509 0.0147 
61 0.16459 0.0147 0.16509 0.0147 
69 0.18519 0.00205 0.18569 0.00205 
77 0.18519 0.00447 0.18569 0.00447 
6 0.0635 0.0035 0.0635 0.02159 
14 0.00953 0.00953 0.0127 0.00953 
22 0.17459 0.0127 0.17459 0.02223 
30 0.08459 0.0127 0.08459 0.0147 
38 0.10459 0.0127 0.10459 0.0147 
46 0.12459 0.0127 0.12459 0.0147 
54 0.14459 0.0127 0.14459 0.0147 
62 0.16459 0.0127 0.16459 0.0147 
70 0.18519 0.00157 0.18519 0.00205 
78 0.18519 0.00399 0.18519 0.00447 
7 0.06509 0.0035 0.0635 0.0035 
15 0.0127 0.00953 0.0127 0 
23 0.07509 0.0127 0.07459 0.0127 
31 0.09509 0.0127 0.09459 0.0127 
39 0.11509 0.0127 0.11459 0.0127 
47 0.13509 0.0127 0.13459 0.0127 
55 0.15509 0.0127 0.15459 0.0127 
63 0.18569 0.00036 0.18519 0.00036 
71 0.18569 0.00278 0.18519 0.00278 
8 0.06509 0.0254 0.06509 0.0035 
16 0.0127 0 0.00953 0 
24 0.07509 0.0147 0.07509 0.0127 
32 0.09509 0.0147 0.09509 0.0127 
40 0.11509 0.0147 0.11509 0.0127 
48 0.13509 0.0147 0.13509 0.0127 
56 0.15509 0.0147 0.15509 0.0127 
64 0.18569 0.00084 0.18569 0.00036 
72 0.18569 0.00326 0.18569 0.00278 
