ITEM: TIMESTEP
500000
ITEM: NUMBER OF CELLS
35631
ITEM: BOX BOUNDS oo ao pp
0 0.35
0 0.03
-0.1 0.1
ITEM: CELLS xc yc f_out[1] f_out[2] f_out[3] f_out[4] f_out[5] f_out[6] 
0.00875 0.01575 0 0 0 0 0 0 
0.00875 0.01875 0 0 0 0 0 0 
0.00875 0.02175 0 0 0 0 0 0 
0.00875 0.02475 0 0 0 0 0 0 
0.00875 0.02775 0 0 0 0 0 0 
0.02625 0.02475 0 0 0 0 0 0 
0.02625 0.02775 0 0 0 0 0 0 
0.00875 0.01425 0 0 0 0 0 0 
0.00875 0.01725 0 0 0 0 0 0 
0.00875 0.02025 0 0 0 0 0 0 
0.00875 0.02325 0 0 0 0 0 0 
0.00875 0.02625 0 0 0 0 0 0 
0.00875 0.02925 0 0 0 0 0 0 
0.02625 0.02325 0 0 0 0 0 0 
0.02625 0.02625 0 0 0 0 0 0 
0.02625 0.02925 0 0 0 0 0 0 
0.04375 0.02325 0 0 0 0 0 0 
0.04375 0.02625 0 0 0 0 0 0 
0.04375 0.02925 0.237362 2.69469e+16 1.79197e-10 -90.1413 22.2892 4.54093 
0.004375 0.013125 0 0 0 0 0 0 
0.013125 0.013125 0 0 0 0 0 0 
0.021875 0.022125 0 0 0 0 0 0 
0.030625 0.022125 0 0 0 0 0 0 
0.0021875 0.0001875 1.93973 1.27478e+22 8.47728e-05 33.6794 0.0405957 0.863586 
0.0021875 0.0031875 0 0 0 0 0 0 
0.0021875 0.0035625 0 0 0 0 0 0 
0.0021875 0.0039375 0 0 0 0 0 0 
0.0021875 0.0043125 0 0 0 0 0 0 
0.0021875 0.0061875 0 0 0 0 0 0 
0.0021875 0.0065625 0 0 0 0 0 0 
0.0021875 0.0069375 0 0 0 0 0 0 
0.0021875 0.0073125 0 0 0 0 0 0 
0.0021875 0.0091875 0 0 0 0 0 0 
0.0021875 0.0095625 0 0 0 0 0 0 
0.0021875 0.0099375 0 0 0 0 0 0 
0.0021875 0.0103125 0 0 0 0 0 0 
0.0021875 0.0121875 0 0 0 0 0 0 
0.0021875 0.0125625 0 0 0 0 0 0 
0.0021875 0.0020625 0 0 0 0 0 0 
0.0021875 0.0024375 0 0 0 0 0 0 
0.0021875 0.0028125 0 0 0 0 0 0 
0.0021875 0.0046875 0 0 0 0 0 0 
0.0021875 0.0050625 0 0 0 0 0 0 
0.0021875 0.0054375 0 0 0 0 0 0 
0.0021875 0.0058125 0 0 0 0 0 0 
0.0021875 0.0076875 0 0 0 0 0 0 
0.0021875 0.0080625 0 0 0 0 0 0 
0.0021875 0.0084375 0 0 0 0 0 0 
0.0021875 0.0088125 0 0 0 0 0 0 
0.0021875 0.0106875 0 0 0 0 0 0 
0.0021875 0.0110625 0 0 0 0 0 0 
0.0021875 0.0114375 0 0 0 0 0 0 
0.0021875 0.0118125 0 0 0 0 0 0 
0.00546875 9.375e-05 1.91914 9.68535e+21 6.44076e-05 46.8069 8.08924 -1.24479 
0.00765625 9.375e-05 1.92733 5.1738e+21 3.44058e-05 46.8405 9.65423 -2.27055 
0.00546875 0.00028125 1.84268 9.31284e+21 6.19304e-05 46.792 0.325751 1.69549 
0.00765625 0.00028125 1.81411 5.46353e+21 3.63325e-05 45.5593 2.87834 -3.82424 
0.00765625 0.00046875 1.79444 5.18208e+21 3.44608e-05 40.9492 0.902865 -0.378973 
0.00765625 0.00065625 1.79138 4.93728e+21 3.28329e-05 46.2825 8.93385 -0.117707 
0.00109375 0.00084375 0 0 0 0 0 0 
0.00109375 0.00103125 0 0 0 0 0 0 
0.00109375 0.00121875 0 0 0 0 0 0 
0.00109375 0.00140625 0 0 0 0 0 0 
0.00546875 0.00309375 2.00211 3.12457e+21 2.07784e-05 -9.51125 4.09784 1.6601 
0.00546875 0.00328125 1.89974 3.18949e+21 2.12101e-05 5.66262 -2.22895 -1.39788 
0.00546875 0.00346875 1.96597 3.52378e+21 2.34331e-05 2.62822 7.63606 -3.80268 
0.00546875 0.00365625 1.99631 3.56157e+21 2.36844e-05 0.391388 5.52819 1.14002 
0.00546875 0.00384375 2.00043 3.4398e+21 2.28746e-05 -1.78294 3.83155 -1.79396 
0.00546875 0.00403125 2.15244 3.42844e+21 2.27991e-05 -2.44889 6.51103 4.39682 
0.00546875 0.00421875 2.02634 3.07723e+21 2.04636e-05 3.14303 2.26738 1.34179 
0.00546875 0.00440625 1.96973 2.95535e+21 1.96531e-05 -1.64032 0.213493 -4.47843 
0.0120312 0.00384375 1.95768 2.43176e+21 1.61712e-05 -1.33288 -5.56205 -3.2242 
0.0120312 0.00403125 2.054 2.2592e+21 1.50237e-05 -1.50531 -4.68254 -0.391709 
0.0120312 0.00421875 1.89864 2.43338e+21 1.6182e-05 -1.25421 -2.85348 -0.253731 
0.0120312 0.00440625 1.972 2.55193e+21 1.69704e-05 0.33417 0.750705 3.0043 
0.00546875 0.00609375 2.09758 3.11364e+21 2.07057e-05 1.22051 5.97179 -1.02306 
0.00546875 0.00628125 1.88633 3.32595e+21 2.21176e-05 -4.24261 4.80076 -3.03282 
0.00546875 0.00646875 2.05014 3.25424e+21 2.16407e-05 -0.74317 8.66045 -0.168481 
0.00546875 0.00665625 2.06413 3.10857e+21 2.0672e-05 -2.93073 5.29894 0.713949 
0.0120312 0.00609375 2.03448 2.48108e+21 1.64992e-05 -2.39531 0.730257 2.69135 
0.0120312 0.00628125 1.95949 2.38794e+21 1.58798e-05 0.935271 -2.93424 -1.07188 
0.0120312 0.00646875 1.95834 2.3496e+21 1.56249e-05 2.04555 -0.394838 -0.536527 
0.0120312 0.00665625 1.9972 2.55947e+21 1.70204e-05 -1.53701 3.06792 -1.51854 
0.00546875 0.00684375 2.00979 2.90083e+21 1.92905e-05 -0.685867 7.74401 -1.27305 
0.00546875 0.00703125 1.95831 3.09616e+21 2.05895e-05 2.82137 4.20963 1.42827 
0.00546875 0.00721875 2.01942 3.06001e+21 2.03491e-05 -0.781663 4.31441 -0.128227 
0.00546875 0.00740625 1.95186 3.0149e+21 2.00491e-05 -1.9759 0.464971 -1.06839 
0.0120312 0.00703125 2.01816 2.48545e+21 1.65283e-05 -0.545347 -1.09943 2.04137 
0.0120312 0.00740625 2.03635 2.59422e+21 1.72516e-05 3.7695 2.55893 1.37105 
0.00546875 0.00909375 2.00257 3.03086e+21 2.01552e-05 -0.69391 1.04638 -2.08738 
0.00546875 0.00928125 2.02373 2.8233e+21 1.8775e-05 0.659137 2.67455 -3.15002 
0.00546875 0.00946875 2.07408 2.93192e+21 1.94973e-05 -2.12567 3.89373 -2.68616 
0.00546875 0.00965625 2.06243 2.93704e+21 1.95313e-05 -0.951313 0.47595 -1.86954 
0.0120312 0.00928125 1.87764 2.36495e+21 1.57269e-05 2.5335 -0.281817 1.12783 
0.00546875 0.00984375 1.95371 2.81211e+21 1.87005e-05 -1.36271 6.36604 0.336898 
0.00546875 0.0100312 2.05233 2.90688e+21 1.93308e-05 -1.82415 0.752561 0.292252 
0.00546875 0.0104062 2.01108 2.69849e+21 1.7945e-05 3.41673 2.29296 -2.08348 
0.00546875 0.0120938 1.88583 2.77116e+21 1.84282e-05 -2.84086 1.27689 2.58768 
0.00546875 0.0122813 2.02625 2.88172e+21 1.91634e-05 1.19665 0.69451 0.748927 
0.00546875 0.0126563 2.06423 2.77714e+21 1.8468e-05 0.672116 2.57042 1.34836 
0.0185937 0.0216562 2.02918 2.58345e+21 1.71799e-05 0.988348 1.31082 0.114969 
0.00546875 0.00178125 1.75918 3.27407e+21 2.17726e-05 4.84245 13.0378 -11.9266 
0.00546875 0.00196875 1.95738 2.79994e+21 1.86196e-05 3.05634 10.9555 3.82496 
0.00546875 0.00215625 1.69493 2.92697e+21 1.94643e-05 1.85595 9.61638 2.0171 
0.00546875 0.00234375 1.98959 3.10184e+21 2.06273e-05 -8.37857 6.51975 3.0046 
0.00546875 0.00253125 2.18268 3.02988e+21 2.01487e-05 0.0626964 0.353351 3.80212 
0.00546875 0.00271875 2.03514 3.49677e+21 2.32535e-05 -1.36151 8.92027 -0.865372 
0.00546875 0.00290625 2.07883 3.31241e+21 2.20275e-05 -2.85264 2.53845 3.76704 
0.00546875 0.00459375 1.91393 3.33906e+21 2.22047e-05 -1.11459 0.457354 -2.89204 
0.00546875 0.00478125 1.93536 3.41697e+21 2.27229e-05 -1.17677 6.89667 4.74998 
0.00546875 0.00496875 1.97415 3.31215e+21 2.20258e-05 1.25293 6.1433 1.72229 
0.00546875 0.00515625 1.98672 3.26143e+21 2.16885e-05 -2.23984 7.45881 -0.00739459 
0.0120312 0.00459375 2.00306 2.5869e+21 1.72029e-05 1.2585 0.860337 -0.471227 
0.0120312 0.00478125 1.99656 2.33507e+21 1.55282e-05 3.34725 0.0683535 1.87542 
0.0120312 0.00496875 2.00595 2.28715e+21 1.52096e-05 3.05043 -0.523376 -0.963077 
0.0120312 0.00515625 2.00662 2.60682e+21 1.73354e-05 -0.413288 0.59518 -3.26939 
0.00546875 0.00534375 1.93189 3.34882e+21 2.22697e-05 -0.789381 -1.30493 1.9103 
0.00546875 0.00553125 1.98417 2.96088e+21 1.96898e-05 5.42459 5.40278 -1.45107 
0.00546875 0.00571875 2.01976 3.24797e+21 2.1599e-05 -3.20494 -2.93797 -3.31343 
0.00546875 0.00590625 1.84183 3.23954e+21 2.1543e-05 -4.73033 6.72945 3.90786 
0.0120312 0.00534375 1.93201 2.41444e+21 1.6056e-05 0.293904 -1.31651 0.731214 
0.0120312 0.00553125 2.00458 2.45897e+21 1.63522e-05 1.65444 3.58226 0.899157 
0.0120312 0.00571875 2.11916 2.42375e+21 1.6118e-05 -2.54724 -1.33404 -0.660839 
0.0120312 0.00590625 1.96775 2.52603e+21 1.67981e-05 1.03946 0.179032 -0.509276 
0.00546875 0.00759375 1.898 3.12983e+21 2.08134e-05 1.14113 2.402 0.646082 
0.00546875 0.00778125 2.05115 2.95174e+21 1.96291e-05 -0.69079 3.91939 -0.0393589 
0.00546875 0.00796875 2.0455 3.01262e+21 2.00339e-05 0.430129 1.37344 0.0513489 
0.00546875 0.00815625 2.094 3.11477e+21 2.07132e-05 -2.25858 1.46945 0.0790542 
0.0120312 0.00778125 1.97535 2.45636e+21 1.63348e-05 -3.06149 2.96438 4.03638 
0.00546875 0.00834375 2.00957 2.81977e+21 1.87515e-05 -1.83288 3.20651 -2.38558 
0.00546875 0.00853125 2.03038 2.93572e+21 1.95225e-05 -0.0209562 0.61619 -1.1515 
0.00546875 0.00871875 1.98674 2.86801e+21 1.90722e-05 -1.40077 3.33163 2.43179 
0.00546875 0.00890625 1.97665 3.01842e+21 2.00725e-05 1.93067 9.84404 -0.579004 
0.0120312 0.00871875 1.93408 2.37779e+21 1.58123e-05 -3.07542 0.28911 0.503759 
0.0120312 0.00890625 1.92445 2.41967e+21 1.60908e-05 3.02525 -2.11278 1.03755 
0.00546875 0.0105937 2.03845 2.70729e+21 1.80035e-05 -1.46811 0.578861 3.57751 
0.00546875 0.0107812 1.9498 2.78988e+21 1.85527e-05 1.45452 3.99315 0.154207 
0.00546875 0.0109687 1.97096 2.64022e+21 1.75575e-05 0.905979 4.64528 -0.629559 
0.00546875 0.0111562 1.9013 2.88587e+21 1.9191e-05 -1.58547 5.87155 0.0332734 
0.00546875 0.0113437 1.91792 2.85225e+21 1.89675e-05 -1.92634 -0.0492094 3.041 
0.00546875 0.0115312 1.96287 2.7747e+21 1.84518e-05 -2.89725 2.01895 1.16396 
0.00546875 0.0119063 1.98838 2.94899e+21 1.96108e-05 -0.975099 1.87986 -0.603966 
0.0185937 0.00159375 2.08734 2.49803e+21 1.66119e-05 -0.0812796 -1.05291 -1.30019 
0.0207812 0.00178125 2.08875 2.405e+21 1.59932e-05 1.80813 -0.0917554 -2.85654 
0.0185937 0.00196875 1.99221 2.40656e+21 1.60036e-05 -0.288099 0.116734 1.70014 
0.0273437 0.00159375 1.9206 2.38116e+21 1.58347e-05 1.14136 0.73174 -0.911043 
0.0295312 0.00159375 1.99316 2.55403e+21 1.69843e-05 4.93013 3.53853 1.40814 
0.0360937 0.00159375 2.00422 2.36656e+21 1.57376e-05 -2.47892 -2.66828 -0.209531 
0.0382812 0.00159375 2.01089 2.32517e+21 1.54624e-05 0.507865 -0.763456 -3.53126 
0.0109375 0.0001875 2.02087 6.12316e+21 4.0719e-05 6.02444 -5.12433 7.78156 
0.0109375 0.0001875 1.66074 2.82276e+21 1.87714e-05 -14.9649 13.2368 4.19957 
0.0153125 0.0001875 1.8416 2.59207e+21 1.72373e-05 -1.33554 3.07807 -1.82253 
0.0109375 0.0005625 2.00469 5.38799e+21 3.58301e-05 13.4605 11.5573 -0.517068 
0.0109375 0.0005625 2.05372 2.34343e+21 1.55838e-05 -9.29442 4.25977 -2.13704 
0.0196875 0.0001875 1.92501 2.38512e+21 1.58611e-05 -5.43408 0.631667 3.3335 
0.0240625 0.0001875 2.11005 2.37477e+21 1.57922e-05 5.53609 -7.30548 1.08642 
0.00109375 0.00046875 0 0 0 0 0 0 
0.00328125 0.00046875 1.86528 1.32744e+22 8.82745e-05 26.8759 0.542712 -1.41448 
0.00109375 0.00065625 0 0 0 0 0 0 
0.0142187 0.00121875 1.89917 2.48979e+21 1.65571e-05 2.74895 4.12643 3.93584 
0.0164062 0.00121875 2.0941 2.3497e+21 1.56255e-05 0.466872 -2.58789 2.32396 
0.0142187 0.00140625 2.01182 2.45583e+21 1.63313e-05 -0.728213 6.18784 -1.5579 
0.0164062 0.00140625 2.01304 2.44479e+21 1.62579e-05 -0.184624 -1.24881 0.542512 
0.00984375 0.00309375 2.02436 3.68638e+21 2.45144e-05 1.22928 11.9597 1.28945 
0.0120312 0.00309375 1.96207 2.47254e+21 1.64424e-05 -4.59853 3.62315 3.06453 
0.00984375 0.00328125 1.96312 3.61171e+21 2.40179e-05 0.600354 15.5913 -0.216099 
0.0120312 0.00328125 1.94725 2.65385e+21 1.76481e-05 2.51361 0.475276 2.13762 
0.0120312 0.00346875 2.10925 2.19948e+21 1.46266e-05 3.47134 -2.60369 3.19082 
0.0120312 0.00365625 2.00594 2.61109e+21 1.73638e-05 -1.47216 -2.92863 6.17998 
0.00984375 0.00196875 1.91095 4.07381e+21 2.70909e-05 0.225033 17.2545 5.37467 
0.0120312 0.00196875 2.06085 2.51589e+21 1.67306e-05 0.212895 -7.25487 3.32714 
0.00984375 0.00215625 2.06286 4.08295e+21 2.71516e-05 3.13159 17.3954 1.82212 
0.0120312 0.00215625 1.98353 2.76024e+21 1.83556e-05 5.72944 7.04917 -0.697427 
0.0120312 0.00234375 1.82864 2.43716e+21 1.62071e-05 3.28795 5.4236 -9.56327 
0.00984375 0.00253125 1.92635 3.68873e+21 2.453e-05 4.52903 10.9747 -0.797011 
0.0120312 0.00253125 2.0119 2.46178e+21 1.63708e-05 -4.65175 -5.15355 -1.7074 
0.0229687 0.00178125 2.06691 2.61849e+21 1.74129e-05 0.450557 -0.556989 -1.98715 
0.0317187 0.00159375 1.89517 2.34464e+21 1.55919e-05 3.02578 0.513763 1.1657 
0.0339062 0.00159375 2.08493 2.42499e+21 1.61262e-05 1.49347 2.12688 0.670259 
0.0404687 0.00159375 1.94823 2.45664e+21 1.63367e-05 -1.83323 -2.59997 0.93592 
0.0404687 0.00178125 2.04387 2.33529e+21 1.55297e-05 2.74581 -1.60683 -1.46249 
0.0426562 0.00178125 1.94859 2.41589e+21 1.60657e-05 -1.04297 -1.08563 -3.03316 
0.0448437 0.00159375 2.03717 2.51994e+21 1.67576e-05 3.98085 1.81746 -1.52913 
0.0470312 0.00159375 2.01038 2.4469e+21 1.62719e-05 4.07467 2.86685 0.618759 
0.00273437 0.000796875 1.64517 1.19933e+22 7.97554e-05 32.9828 -2.07796 11.5059 
0.00382812 0.000796875 1.92594 1.28359e+22 8.53587e-05 27.4378 -3.98727 -0.922373 
0.00273437 0.000890625 1.91415 1.31782e+22 8.76352e-05 34.3 1.83353 -0.95742 
0.00382812 0.000890625 1.89943 1.23387e+22 8.20523e-05 26.1734 -0.334474 -1.59101 
0.00492187 0.000796875 1.975 1.07518e+22 7.14992e-05 41.9243 -0.778171 1.89039 
0.00601562 0.000796875 1.92834 8.4339e+21 5.60854e-05 44.9234 1.35268 -0.669069 
0.00492187 0.000890625 1.87377 1.07528e+22 7.1506e-05 37.0137 -3.281 3.4263 
0.00601562 0.000890625 1.80146 8.52206e+21 5.66717e-05 48.7553 4.12179 -2.63944 
0.00492187 0.000984375 1.98017 1.02648e+22 6.8261e-05 35.478 0.0457532 1.67318 
0.00601562 0.000984375 1.79353 8.59343e+21 5.71463e-05 45.9433 1.20356 0.634718 
0.00601562 0.00107813 1.70908 8.04773e+21 5.35174e-05 41.0645 1.89754 3.77796 
0.00273437 0.00117188 1.96511 1.48801e+22 9.89527e-05 27.1649 5.45568 5.43237 
0.00273437 0.00126563 1.7053 1.45727e+22 9.69088e-05 21.0769 -6.67881 2.65189 
0.00273437 0.00135937 1.73312 1.59112e+22 0.00010581 23.8542 -6.60671 1.15912 
0.00273437 0.00145312 1.87285 1.68463e+22 0.000112028 21.1933 -4.76284 -4.90766 
0.00492187 0.00117188 2.05143 9.98667e+21 6.64114e-05 28.6907 -1.2742 0.625284 
0.00601562 0.00117188 1.75733 8.37079e+21 5.56658e-05 40.2451 3.33128 2.2391 
0.00492187 0.00126563 1.90413 1.12459e+22 7.47854e-05 28.1619 3.13548 0.650028 
0.00601562 0.00126563 1.86254 8.6092e+21 5.72512e-05 38.8248 2.03304 0.518162 
0.00492187 0.00135937 1.99008 1.03333e+22 6.87166e-05 21.9285 -0.463214 -3.66596 
0.00601562 0.00135937 1.83451 7.87845e+21 5.23917e-05 35.398 6.37287 2.51993 
0.00492187 0.00145312 1.98109 9.82688e+21 6.53488e-05 21.8647 -0.48523 1.07341 
0.00601562 0.00145312 1.92344 7.58379e+21 5.04322e-05 27.0749 2.40229 -0.137825 
0.00710937 0.00323438 1.96361 3.22005e+21 2.14133e-05 -2.28139 6.58188 -1.59538 
0.00820312 0.00323438 1.96866 3.59916e+21 2.39344e-05 1.31986 14.9517 -2.64628 
0.00710937 0.00332813 1.9734 3.48845e+21 2.31982e-05 -0.0267869 9.01161 -1.36223 
0.00820312 0.00332813 1.93793 3.4185e+21 2.2733e-05 -4.46293 16.2871 -0.839401 
0.00710937 0.00342187 2.03875 3.52442e+21 2.34374e-05 -5.28678 10.3982 2.61343 
0.00820312 0.00342187 2.03675 3.60153e+21 2.39502e-05 -1.78327 13.6475 2.21069 
0.00710937 0.00351562 1.86821 3.28916e+21 2.18729e-05 0.444239 2.61873 -2.70553 
0.00820312 0.00351562 2.00073 3.55405e+21 2.36345e-05 1.58196 15.6787 -1.86886 
0.00710937 0.00360937 2.02158 3.05321e+21 2.03039e-05 2.98953 4.52425 2.4478 
0.00710937 0.00370312 1.9524 3.1813e+21 2.11556e-05 1.05563 5.08595 2.07574 
0.00820312 0.00370312 2.0019 3.49146e+21 2.32182e-05 -0.0364666 11.2675 -0.307157 
0.0136719 0.00323438 2.06742 2.41864e+21 1.60839e-05 -3.28168 -0.985014 -3.31822 
0.0147656 0.00323438 2.12794 2.48102e+21 1.64988e-05 2.61972 4.66601 8.71066 
0.0136719 0.00332813 1.88493 2.43445e+21 1.61891e-05 2.34307 -1.7862 -4.77963 
0.0147656 0.00332813 2.00612 2.34118e+21 1.55688e-05 -1.25985 1.20877 -0.507437 
0.0158594 0.00360937 2.01419 2.45117e+21 1.63003e-05 0.937588 1.28741 -0.426488 
0.0169531 0.00360937 1.9889 2.55868e+21 1.70152e-05 3.15354 -1.31723 -1.55848 
0.0158594 0.00370312 1.98342 2.47714e+21 1.6473e-05 -2.19968 0.76062 -1.99206 
0.0169531 0.00370312 1.99941 2.38492e+21 1.58597e-05 -2.28727 2.26115 -1.97416 
0.00820312 0.00379687 2.02647 3.47884e+21 2.31343e-05 -2.92343 9.73002 3.85396 
0.00710937 0.00389062 1.92781 3.34714e+21 2.22585e-05 1.03686 8.57415 -0.98522 
0.00820312 0.00389062 1.99589 3.38304e+21 2.24972e-05 -2.59921 13.2798 0.319212 
0.00710937 0.00398438 1.91891 3.18657e+21 2.11907e-05 -1.01224 5.99052 2.06878 
0.00820312 0.00398438 1.97211 3.40472e+21 2.26414e-05 0.436736 9.8105 1.37474 
0.00820312 0.00407813 1.92489 3.36071e+21 2.23487e-05 -0.810931 13.6844 -2.44455 
0.00710937 0.00417188 2.04079 3.28147e+21 2.18218e-05 -3.71107 10.7493 -1.96965 
0.00820312 0.00417188 1.95879 3.33727e+21 2.21929e-05 -0.223579 13.5672 -2.75108 
0.00710937 0.00426563 2.01614 3.11474e+21 2.0713e-05 -0.711685 5.293 2.89622 
0.00820312 0.00426563 1.91443 3.52955e+21 2.34715e-05 -3.518 10.3072 -0.77468 
0.00710937 0.00435938 2.01347 3.3504e+21 2.22801e-05 -1.34458 5.41737 0.188919 
0.00820312 0.00435938 1.93981 3.20798e+21 2.13331e-05 -0.416722 12.0039 5.96948 
0.00820312 0.00445313 1.96795 3.44717e+21 2.29237e-05 -3.53604 8.57575 -0.73645 
0.0158594 0.00398438 1.92445 2.48927e+21 1.65536e-05 -2.18082 0.0647567 0.00185265 
0.0169531 0.00398438 2.0009 2.57107e+21 1.70976e-05 5.93904 2.6692 -1.16756 
0.0158594 0.00407813 1.90558 2.44346e+21 1.6249e-05 1.96725 -0.598822 -0.103121 
0.0169531 0.00407813 2.03513 2.41301e+21 1.60465e-05 4.31081 2.66314 2.42049 
0.0147656 0.00623438 1.953 2.57679e+21 1.71356e-05 3.27402 -2.40897 0.43049 
0.0136719 0.00632813 2.03747 2.29579e+21 1.5267e-05 0.401241 -2.15426 1.9981 
0.0147656 0.00642188 1.98269 2.56923e+21 1.70853e-05 0.760988 -1.48787 1.77641 
0.0147656 0.00651563 1.93867 2.55846e+21 1.70138e-05 2.22257 -1.20726 2.26422 
0.0169531 0.00642188 1.96468 2.36378e+21 1.57192e-05 3.84718 1.88394 0.19231 
0.0147656 0.00660938 1.9728 2.39536e+21 1.59291e-05 -0.123961 -3.02879 1.83083 
0.0147656 0.00670313 2.01655 2.3827e+21 1.58449e-05 0.28149 -0.10287 1.0946 
0.0158594 0.00660938 2.07271 2.30612e+21 1.53357e-05 1.67676 -1.50059 -2.0157 
0.0158594 0.00670313 1.95059 2.41975e+21 1.60913e-05 -0.278043 -4.43046 -2.37933 
0.0158594 0.00679687 1.95129 2.41149e+21 1.60364e-05 2.66041 -1.50485 0.154655 
0.0158594 0.00689062 2.00719 2.62646e+21 1.7466e-05 0.0161499 0.0140681 1.56043 
0.0169531 0.00707812 1.99415 2.50864e+21 1.66825e-05 2.20763 0.383173 0.67546 
0.0147656 0.00726562 2.04301 2.35204e+21 1.56411e-05 4.32578 1.47133 -0.578537 
0.0136719 0.00735937 1.92569 2.54142e+21 1.69005e-05 -2.05959 -3.82809 1.30476 
0.0103906 0.00942187 0 0 0 0 0 0 
0.0103906 0.00951562 1.99517 2.664e+21 1.77156e-05 5.07403 1.43518 -2.23519 
0.00710937 0.0127031 1.98693 2.80182e+21 1.86321e-05 -2.98169 1.51346 0.294563 
0.0103906 0.0127031 1.94478 2.87003e+21 1.90857e-05 -1.24669 1.03359 0.570855 
0.0136719 0.0127031 2.03662 2.40831e+21 1.60152e-05 0.799215 2.78429 0.480819 
0.0158594 0.0127031 2.03536 2.58408e+21 1.71841e-05 0.186021 0.826619 -0.916107 
0.0169531 0.0127031 1.98663 2.47914e+21 1.64863e-05 0.774125 -0.737012 -3.18164 
0.0224219 0.00379687 1.99756 2.4078e+21 1.60118e-05 2.3721 -3.18866 -2.57299 
0.0235156 0.00379687 2.04577 2.43641e+21 1.62021e-05 0.933438 -3.02694 2.82399 
0.0224219 0.00389062 1.92987 2.68888e+21 1.7881e-05 5.03864 -0.502007 -2.59279 
0.0235156 0.00389062 2.09813 2.41361e+21 1.60505e-05 2.62701 -1.00806 2.92872 
0.0202344 0.00435938 2.06522 2.6027e+21 1.73079e-05 -1.55042 0.919575 -3.12137 
0.0213281 0.00435938 1.95054 2.66679e+21 1.77341e-05 1.04132 -2.81968 2.02779 
0.0202344 0.00445313 1.99273 2.45728e+21 1.63409e-05 2.95641 2.11918 -3.3026 
0.0213281 0.00445313 1.96482 2.31438e+21 1.53906e-05 3.4815 -3.56212 -2.3031 
0.0246094 0.00417188 1.95927 2.33646e+21 1.55375e-05 3.53203 4.95901 -3.62715 
0.0257031 0.00417188 2.04843 2.38855e+21 1.58839e-05 4.5645 -0.344014 1.79179 
0.0246094 0.00426563 1.99668 2.52163e+21 1.67688e-05 3.33486 3.08725 -3.59311 
0.0257031 0.00426563 1.92279 2.47433e+21 1.64543e-05 2.07992 0.58435 0.367325 
0.0224219 0.00435938 1.98361 2.39975e+21 1.59584e-05 -1.54609 -2.33283 1.80689 
0.0235156 0.00435938 2.00051 2.42112e+21 1.61004e-05 -3.66193 -3.76716 -0.887489 
0.0224219 0.00445313 2.11332 2.52699e+21 1.68045e-05 6.03517 -0.718831 -2.75575 
0.0235156 0.00445313 2.0077 2.42591e+21 1.61323e-05 1.51011 0.568381 -2.59955 
0.0180469 0.00604688 2.05143 2.64642e+21 1.75987e-05 1.26339 0.134349 1.81994 
0.0180469 0.00614063 1.95016 2.3583e+21 1.56827e-05 -0.740866 -1.85677 -1.45619 
0.0202344 0.00604688 2.02148 2.42054e+21 1.60966e-05 0.536776 3.01887 3.12855 
0.0213281 0.00614063 2.0925 2.57316e+21 1.71115e-05 1.66413 -1.46457 -1.03421 
0.0180469 0.00623438 1.91408 2.29794e+21 1.52813e-05 -2.17714 -4.17369 4.27651 
0.0191406 0.00623438 2.02896 2.65645e+21 1.76654e-05 4.97271 -0.657497 2.181 
0.0180469 0.00632813 1.95934 2.27862e+21 1.51528e-05 -0.550606 1.78782 1.80799 
0.0191406 0.00632813 2.01457 2.37182e+21 1.57726e-05 2.92081 -3.4178 -0.101054 
0.0202344 0.00623438 2.0256 2.46724e+21 1.64072e-05 3.16838 0.94671 1.09859 
0.0213281 0.00623438 1.95491 2.44981e+21 1.62913e-05 4.44639 0.685787 -2.99535 
0.0202344 0.00632813 2.06962 2.45522e+21 1.63272e-05 0.72006 -0.187774 1.97506 
0.0213281 0.00632813 1.91537 2.38409e+21 1.58542e-05 1.43687 -2.1686 0.0190322 
0.0246094 0.00604688 1.98726 2.4385e+21 1.6216e-05 -0.128229 -1.44387 0.890368 
0.0257031 0.00604688 1.95386 2.39743e+21 1.59429e-05 1.97506 3.45179 -0.877045 
0.0257031 0.00614063 1.94387 2.49733e+21 1.66072e-05 3.28746 -0.733307 -5.13085 
0.0224219 0.00623438 2.01386 2.49961e+21 1.66224e-05 0.660618 3.03852 1.26925 
0.0202344 0.00642188 1.94804 2.49913e+21 1.66192e-05 5.01256 -0.116384 2.29556 
0.0213281 0.00642188 2.00956 2.48705e+21 1.65389e-05 2.71329 2.02886 2.05319 
0.0180469 0.00670313 1.96128 2.64204e+21 1.75696e-05 -1.40411 -2.28059 1.65522 
0.0257031 0.00642188 2.08562 2.33961e+21 1.55584e-05 3.97658 0.945574 -1.95927 
0.0246094 0.00651563 1.99021 2.37265e+21 1.57781e-05 6.37709 -0.85595 1.68094 
0.0257031 0.00651563 2.06266 2.487e+21 1.65385e-05 0.81009 0.156555 1.25532 
0.0246094 0.00670313 2.02978 2.46374e+21 1.63839e-05 0.830487 0.300937 0.0199694 
0.0257031 0.00670313 1.9492 2.43132e+21 1.61683e-05 -0.972459 4.07191 -2.43511 
0.0267969 0.00604688 2.05404 2.49241e+21 1.65745e-05 1.30746 0.274664 0.643059 
0.0278906 0.00604688 1.91497 2.34866e+21 1.56186e-05 2.63518 2.19788 1.23844 
0.0278906 0.00614063 2.02922 2.56304e+21 1.70442e-05 -1.02638 0.379 -0.380946 
0.0289844 0.00604688 1.99069 2.57711e+21 1.71378e-05 1.64057 1.22792 1.12349 
0.0300781 0.00604688 1.94183 2.46674e+21 1.64038e-05 -0.555973 -3.63715 -0.491009 
0.0289844 0.00614063 1.9291 2.54788e+21 1.69434e-05 0.154507 3.22076 -0.522173 
0.0300781 0.00614063 1.92408 2.50491e+21 1.66576e-05 6.29095 -3.86454 -0.903505 
0.0311719 0.00604688 1.98161 2.50267e+21 1.66428e-05 2.51388 1.966 0.127572 
0.0322656 0.00604688 1.89096 2.42567e+21 1.61307e-05 4.12903 1.47127 2.80152 
0.0311719 0.00614063 1.95411 2.41644e+21 1.60693e-05 -2.19886 -2.32877 0.7425 
0.0322656 0.00614063 1.96078 2.48974e+21 1.65568e-05 0.519248 3.04419 1.08249 
0.0333594 0.00604688 1.91879 2.4077e+21 1.60112e-05 2.43495 -2.74762 0.281386 
0.0344531 0.00604688 1.97139 2.4e+21 1.596e-05 2.30747 -1.31919 0.126178 
0.0333594 0.00614063 2.0267 2.46447e+21 1.63887e-05 1.20062 -2.63363 -0.149338 
0.0344531 0.00614063 1.91891 2.39875e+21 1.59517e-05 2.32402 -3.94646 -1.55139 
0.0311719 0.00623438 2.07196 2.47969e+21 1.64899e-05 2.2279 -0.775578 -2.36346 
0.0322656 0.00632813 2.16522 2.40371e+21 1.59847e-05 -0.432025 -1.07802 -2.17091 
0.0267969 0.00642188 1.99097 2.37345e+21 1.57835e-05 3.67855 -0.0114394 1.92168 
0.0289844 0.00642188 1.97664 2.45805e+21 1.6346e-05 2.73519 1.68207 1.1923 
0.0289844 0.00651563 1.89975 2.39647e+21 1.59366e-05 1.96034 -0.223947 2.55686 
0.0300781 0.00651563 1.94313 2.5537e+21 1.69821e-05 6.42197 -0.632715 0.121696 
0.0278906 0.00660938 2.01364 2.45877e+21 1.63508e-05 1.28977 1.33627 -0.643525 
0.0278906 0.00670313 2.03092 2.52858e+21 1.6815e-05 2.80277 2.63188 -3.20377 
0.0333594 0.00660938 2.04817 2.5574e+21 1.70067e-05 -0.155209 -0.0144592 4.51346 
0.0180469 0.00679687 2.0381 2.37952e+21 1.58238e-05 -0.451231 -2.49154 -1.12124 
0.0180469 0.00698437 1.92943 2.39786e+21 1.59458e-05 3.14745 1.4225 -0.171836 
0.0180469 0.00707812 2.00488 2.54373e+21 1.69158e-05 3.16268 -1.6152 0.866514 
0.0191406 0.00707812 2.01036 2.43189e+21 1.61721e-05 4.45731 -1.92065 0.59556 
0.0213281 0.00698437 1.9492 2.53787e+21 1.68768e-05 1.95784 2.15679 -0.648225 
0.0202344 0.00707812 1.97153 2.37268e+21 1.57783e-05 0.682852 2.16226 -0.0545202 
0.0213281 0.00707812 2.03152 2.47356e+21 1.64491e-05 4.22302 0.302043 -0.635677 
0.0235156 0.00679687 1.99869 2.59189e+21 1.72361e-05 3.38323 0.58169 -1.22041 
0.0246094 0.00698437 1.94799 2.43787e+21 1.62118e-05 0.215869 0.784863 -0.237062 
0.0191406 0.00717187 2.04241 2.31786e+21 1.54138e-05 1.46165 -1.12627 -1.29808 
0.0202344 0.00717187 1.97461 2.44339e+21 1.62485e-05 4.79667 2.9728 -2.43815 
0.0235156 0.00717187 2.02728 2.5451e+21 1.69249e-05 3.39546 0.794482 1.24686 
0.0224219 0.00726562 2.02917 2.37341e+21 1.57831e-05 4.14239 -0.141281 -2.74181 
0.0267969 0.00679687 1.93423 2.50283e+21 1.66438e-05 0.709932 -3.45132 2.48632 
0.0300781 0.00689062 2.03334 2.40796e+21 1.6013e-05 1.6634 -0.517854 -2.20335 
0.0322656 0.00679687 2.03139 2.53937e+21 1.68868e-05 1.80917 1.75406 -0.488855 
0.0311719 0.00689062 1.90285 2.49356e+21 1.65822e-05 1.30906 0.465787 -0.528249 
0.0322656 0.00689062 2.04052 2.45752e+21 1.63425e-05 0.388558 0.512648 1.0606 
0.0333594 0.00689062 1.99789 2.39895e+21 1.5953e-05 1.13337 1.39734 -2.64209 
0.0311719 0.00698437 1.92477 2.32675e+21 1.54729e-05 1.05249 -3.32345 0.492937 
0.0344531 0.00707812 1.97548 2.30032e+21 1.52971e-05 5.53748 1.73279 -1.11885 
0.0322656 0.00717187 2.02951 2.4304e+21 1.61622e-05 2.12279 2.27897 2.13596 
0.0180469 0.0127031 2.01593 2.44503e+21 1.62595e-05 0.824344 0.572224 1.17483 
0.0180469 0.0156094 0 0 0 0 0 0 
0.0180469 0.0157031 0 0 0 0 0 0 
0.0180469 0.0157969 0 0 0 0 0 0 
0.0180469 0.0158906 0 0 0 0 0 0 
0.0180469 0.0187969 0 0 0 0 0 0 
0.0180469 0.0188906 0 0 0 0 0 0 
0.0180469 0.0191719 0 0 0 0 0 0 
0.0180469 0.0192656 0 0 0 0 0 0 
0.0180469 0.0193594 0 0 0 0 0 0 
0.0180469 0.0194531 0 0 0 0 0 0 
0.0180469 0.0214219 0 0 0 0 0 0 
0.0180469 0.0215156 0 0 0 0 0 0 
0.00710937 0.00210938 1.93588 3.81895e+21 2.5396e-05 13.6915 16.391 -1.11311 
0.00820312 0.00210938 1.94395 3.91461e+21 2.60322e-05 7.19037 18.4787 -1.58869 
0.00710937 0.00220313 2.01761 3.68463e+21 2.45028e-05 1.55934 17.1177 -4.72766 
0.00820312 0.00220313 2.0413 4.07916e+21 2.71264e-05 7.60344 19.0276 -2.76307 
0.00710937 0.00229688 1.90377 3.56126e+21 2.36824e-05 3.58972 13.593 -1.71844 
0.00820312 0.00229688 1.95996 3.83157e+21 2.54799e-05 0.144769 14.7752 0.884912 
0.00710937 0.00239063 1.89283 3.31123e+21 2.20197e-05 0.618702 16.0266 0.959291 
0.00820312 0.00239063 2.05123 4.01243e+21 2.66827e-05 2.87349 18.4872 0.616739 
0.00710937 0.00454687 1.94173 3.25661e+21 2.16565e-05 -1.29536 9.2335 -1.7244 
0.00820312 0.00464062 1.99687 3.19417e+21 2.12412e-05 -3.56746 11.6251 0.95328 
0.00710937 0.00473437 2.0183 3.2096e+21 2.13438e-05 -3.90903 10.9503 3.33458 
0.00820312 0.00482812 2.02111 3.12156e+21 2.07584e-05 2.14506 14.1144 -1.34463 
0.00710937 0.00492187 2.00294 3.23239e+21 2.14954e-05 1.95173 9.5721 0.628063 
0.00820312 0.00501562 1.99737 3.14103e+21 2.08878e-05 -1.44829 8.55637 0.874192 
0.0136719 0.00454687 2.02489 2.63874e+21 1.75476e-05 0.0987291 -3.30106 4.91293 
0.0147656 0.00454687 1.99345 2.45099e+21 1.62991e-05 0.546293 -2.77193 0.441802 
0.0136719 0.00464062 1.97225 2.33793e+21 1.55472e-05 5.29404 1.59636 0.310609 
0.0147656 0.00464062 2.14645 2.42824e+21 1.61478e-05 -0.177014 -4.72328 -0.551005 
0.0158594 0.00473437 1.942 2.449e+21 1.62858e-05 -1.1139 0.192623 -0.726439 
0.0169531 0.00473437 1.96924 2.45884e+21 1.63513e-05 -0.809739 2.07597 2.39994 
0.0158594 0.00482812 2.01234 2.35322e+21 1.56489e-05 5.02662 0.585492 -4.19423 
0.0169531 0.00482812 2.00533 2.39823e+21 1.59482e-05 -1.63277 -1.56851 -1.51274 
0.0136719 0.00492187 1.98855 2.49761e+21 1.66091e-05 0.297642 -4.12729 -3.58022 
0.0147656 0.00492187 1.94423 2.59853e+21 1.72802e-05 0.29727 -0.0838125 -0.0701798 
0.0136719 0.00501562 1.99627 2.56853e+21 1.70807e-05 2.3061 -4.1382 1.45509 
0.0147656 0.00501562 1.93192 2.32405e+21 1.54549e-05 5.22269 0.461779 1.48071 
0.00710937 0.00539062 1.98482 3.1759e+21 2.11198e-05 -2.09033 9.11085 0.286404 
0.00820312 0.00548437 1.9872 3.1669e+21 2.10599e-05 0.621543 10.3696 -2.01433 
0.0103906 0.00867188 0 0 0 0 0 0 
0.0103906 0.00876563 0 0 0 0 0 0 
0.0180469 0.00454687 1.93727 2.40662e+21 1.6004e-05 6.19406 0.161177 1.05657 
0.0191406 0.00454687 1.9753 2.56364e+21 1.70482e-05 -0.15637 -3.18181 -4.96038 
0.0180469 0.00464062 1.96633 2.56871e+21 1.70819e-05 2.94129 0.559127 -0.675504 
0.0191406 0.00464062 1.96347 2.4182e+21 1.6081e-05 3.0386 -1.27146 -0.709386 
0.0180469 0.00473437 1.90764 2.42605e+21 1.61332e-05 1.49813 -1.85723 -2.33406 
0.0191406 0.00473437 2.08712 2.39327e+21 1.59152e-05 0.019118 -2.75454 -5.29742 
0.0180469 0.00482812 1.98893 2.47217e+21 1.64399e-05 -1.53534 3.119 4.93825 
0.0191406 0.00482812 2.03519 2.56862e+21 1.70813e-05 1.84853 -1.29899 1.89029 
0.0180469 0.00492187 2.01601 2.38409e+21 1.58542e-05 -0.699566 -0.712997 1.814 
0.0191406 0.00492187 1.95838 2.3084e+21 1.53509e-05 1.86803 -1.7224 -0.437983 
0.0180469 0.00501562 2.03876 2.62113e+21 1.74305e-05 2.88404 -2.44343 1.29006 
0.0191406 0.00501562 1.8851 2.45712e+21 1.63398e-05 -0.194046 -1.17898 2.05873 
0.0246094 0.00510937 1.94723 2.54266e+21 1.69087e-05 0.205292 -0.570566 -1.68621 
0.0257031 0.00510937 2.04338 2.40596e+21 1.59996e-05 3.4855 -1.22585 3.48001 
0.0246094 0.00520312 2.08101 2.49386e+21 1.65842e-05 -0.901164 -0.239077 0.307751 
0.0267969 0.00454687 1.95023 2.50561e+21 1.66623e-05 1.27193 -1.55728 0.453087 
0.0278906 0.00454687 2.00699 2.42027e+21 1.60948e-05 2.15427 -5.42514 -2.1315 
0.0267969 0.00464062 1.9704 2.52523e+21 1.67928e-05 2.7729 2.68093 -0.953834 
0.0278906 0.00464062 1.97408 2.39479e+21 1.59253e-05 0.401088 3.47828 -5.63799 
0.0333594 0.00473437 2.03123 2.31786e+21 1.54138e-05 2.51075 3.21345 -0.483801 
0.0333594 0.00482812 2.01479 2.43681e+21 1.62048e-05 3.88136 0.117002 1.2446 
0.0344531 0.00482812 1.97941 2.43681e+21 1.62048e-05 0.440346 2.28093 2.97912 
0.0311719 0.00510937 2.06262 2.37862e+21 1.58178e-05 1.26425 2.54561 -0.45828 
0.0322656 0.00510937 2.06325 2.40292e+21 1.59794e-05 0.106882 1.53667 0.960982 