ITEM: TIMESTEP
500000
ITEM: NUMBER OF CELLS
18802
ITEM: BOX BOUNDS oo ao pp
0 0.12
0 0.03
-0.1 0.1
ITEM: CELLS xc yc f_out[1] f_out[2] f_out[3] f_out[4] f_out[5] f_out[6] 
0.003 0.00375 0 0 0 0 0 0 
0.003 0.00675 0 0 0 0 0 0 
0.003 0.00975 0 0 0 0 0 0 
0.003 0.01275 0 0 0 0 0 0 
0.003 0.01575 0 0 0 0 0 0 
0.003 0.01875 0 0 0 0 0 0 
0.003 0.02175 0 0 0 0 0 0 
0.003 0.02475 0 0 0 0 0 0 
0.003 0.02775 0 0 0 0 0 0 
0.009 0.00375 0 0 0 0 0 0 
0.009 0.00675 0 0 0 0 0 0 
0.009 0.00975 0 0 0 0 0 0 
0.009 0.01275 0 0 0 0 0 0 
0.009 0.01575 0 0 0 0 0 0 
0.009 0.01875 0 0 0 0 0 0 
0.009 0.02175 0 0 0 0 0 0 
0.009 0.02475 0 0 0 0 0 0 
0.009 0.02775 0 0 0 0 0 0 
0.003 0.00525 0 0 0 0 0 0 
0.003 0.00825 0 0 0 0 0 0 
0.003 0.01125 0 0 0 0 0 0 
0.003 0.01425 0 0 0 0 0 0 
0.003 0.01725 0 0 0 0 0 0 
0.003 0.02025 0 0 0 0 0 0 
0.003 0.02325 0 0 0 0 0 0 
0.003 0.02625 0 0 0 0 0 0 
0.003 0.02925 0 0 0 0 0 0 
0.009 0.00525 0 0 0 0 0 0 
0.009 0.00825 0 0 0 0 0 0 
0.009 0.01125 0 0 0 0 0 0 
0.009 0.01425 0 0 0 0 0 0 
0.009 0.01725 0 0 0 0 0 0 
0.009 0.02025 0 0 0 0 0 0 
0.009 0.02325 0 0 0 0 0 0 
0.009 0.02625 0 0 0 0 0 0 
0.009 0.02925 0 0 0 0 0 0 
0.015 0.00525 0 0 0 0 0 0 
0.015 0.00825 0 0 0 0 0 0 
0.015 0.01125 0 0 0 0 0 0 
0.015 0.01425 0 0 0 0 0 0 
0.015 0.01725 0 0 0 0 0 0 
0.015 0.02025 0 0 0 0 0 0 
0.015 0.02325 0 0 0 0 0 0 
0.015 0.02625 0 0 0 0 0 0 
0.015 0.02925 0 0 0 0 0 0 
0.0015 0.000375 0 0 0 0 0 0 
0.0015 0.001125 0 0 0 0 0 0 
0.0015 0.001875 0 0 0 0 0 0 
0.0015 0.002625 0 0 0 0 0 0 
0.0045 0.002625 0 0 0 0 0 0 
0.0075 0.002625 0 0 0 0 0 0 
0.0105 0.002625 0 0 0 0 0 0 
0.0135 0.002625 0 0 0 0 0 0 
0.0165 0.002625 0 0 0 0 0 0 
0.00375 0.0001875 0 0 0 0 0 0 
0.00375 0.0005625 0 0 0 0 0 0 
0.00375 0.0009375 0 0 0 0 0 0 
0.00375 0.0013125 0 0 0 0 0 0 
0.00375 0.0016875 0 0 0 0 0 0 
0.00375 0.0020625 0 0 0 0 0 0 
0.004875 9.375e-05 3.56343 2.61719e+21 1.74043e-05 11.0543 -3.88391 13.1951 
0.005625 9.375e-05 4.27749 2.43732e+21 1.62082e-05 9.11708 2.53328 -0.093633 
0.004875 0.00028125 4.0942 2.82405e+21 1.87799e-05 6.03904 -0.193661 -2.2408 
0.005625 0.00028125 4.09948 2.96495e+21 1.97169e-05 4.01595 0.762585 -1.4182 
0.004875 0.00046875 3.87815 2.67655e+21 1.77991e-05 -2.95507 0.560692 2.14658 
0.004875 0.00065625 4.08216 2.99879e+21 1.99419e-05 -3.39915 -4.04389 3.16517 
0.004875 0.00084375 3.99843 2.77308e+21 1.8441e-05 2.31059 -1.40954 -0.842549 
0.006375 9.375e-05 4.02116 2.90499e+21 1.93182e-05 9.32883 -2.61534 -0.742602 
0.007125 9.375e-05 3.79119 2.896e+21 1.92584e-05 5.08456 3.04866 -2.57625 
0.006375 0.00028125 3.96293 2.82705e+21 1.87999e-05 6.98324 1.7953 -5.32397 
0.007125 0.00028125 3.9747 2.85403e+21 1.89793e-05 8.9254 -0.2755 -4.79624 
0.007875 9.375e-05 3.90965 2.74311e+21 1.82416e-05 11.7369 -1.6249 12.0149 
0.008625 9.375e-05 3.69343 2.94097e+21 1.95574e-05 9.64626 2.43613 4.52974 
0.007875 0.00028125 4.16382 2.84503e+21 1.89195e-05 5.23668 3.80141 0.753551 
0.008625 0.00028125 3.95682 2.77608e+21 1.84609e-05 9.66743 0.489101 1.02073 
0.009375 9.375e-05 3.645 2.41033e+21 1.60287e-05 9.40525 0.380971 1.10425 
0.010125 9.375e-05 3.99325 2.41033e+21 1.60287e-05 16.884 -9.24834 3.30471 
0.010125 0.00028125 3.89504 2.62319e+21 1.74442e-05 15.3861 -2.15472 -7.9163 
0.004875 0.00215625 0 0 0 0 0 0 
0.005625 0.00215625 0 0 0 0 0 0 
0.006375 0.00215625 0 0 0 0 0 0 
0.007125 0.00215625 0 0 0 0 0 0 
0.007875 0.00215625 0 0 0 0 0 0 
0.008625 0.00215625 0 0 0 0 0 0 
0.009375 0.00215625 0 0 0 0 0 0 
0.010125 0.00215625 0 0 0 0 0 0 
0.010875 0.00215625 0 0 0 0 0 0 
0.011625 0.00215625 0 0 0 0 0 0 
0.012375 0.00215625 0 0 0 0 0 0 
0.013125 0.00215625 0 0 0 0 0 0 
0.013875 0.00215625 0 0 0 0 0 0 
0.014625 0.00215625 0 0 0 0 0 0 
0.015375 0.00215625 0 0 0 0 0 0 
0.016125 0.00215625 0 0 0 0 0 0 
0.016875 0.00215625 0 0 0 0 0 0 
0.017625 0.00215625 0 0 0 0 0 0 
0.010875 9.375e-05 3.70823 2.4643e+21 1.63876e-05 13.8231 7.00544 -7.8465 
0.011625 9.375e-05 4.21678 2.48229e+21 1.65072e-05 3.38533 -0.536154 -5.04176 
0.010875 0.00028125 4.03101 2.44331e+21 1.6248e-05 7.1731 -0.225518 -6.10045 
0.011625 0.00028125 3.93727 2.58122e+21 1.71651e-05 10.8517 5.1287 2.00376 
0.0054375 0.000796875 4.06822 2.92457e+21 1.94484e-05 1.99328 3.13907 -2.80369 
0.0058125 0.000796875 4.06076 2.99652e+21 1.99268e-05 3.22485 -3.7927 -0.477128 
0.0054375 0.000890625 3.80263 2.80227e+21 1.86351e-05 5.96177 -1.99908 -1.09283 
0.0058125 0.000890625 3.99099 2.90831e+21 1.93402e-05 -0.636552 -6.06697 4.22475 
0.0054375 0.000984375 3.8919 3.02534e+21 2.01185e-05 3.52811 -1.3125 -0.922146 
0.0058125 0.000984375 4.03372 2.88829e+21 1.92071e-05 6.9957 0.672235 5.23442 
0.0054375 0.00107813 4.11595 2.92494e+21 1.94508e-05 1.29784 -3.4093 -5.37792 
0.0058125 0.00117188 3.97765 2.88665e+21 1.91962e-05 8.92899 -1.6655 -1.32544 
0.0058125 0.00126563 4.18056 3.00059e+21 1.99539e-05 7.48899 -6.67369 1.66353 
0.0069375 0.000421875 3.61925 2.85403e+21 1.89793e-05 13.8429 1.34768 4.4666 
0.0073125 0.000421875 4.02734 2.66216e+21 1.77034e-05 6.53959 9.48999 -7.18343 
0.0069375 0.000515625 4.01076 2.90418e+21 1.93128e-05 -0.179777 -5.81906 4.07196 
0.0073125 0.000515625 3.96595 2.84531e+21 1.89213e-05 12.4361 -4.54613 -1.22457 
0.0061875 0.000609375 4.01479 2.93336e+21 1.95068e-05 0.914525 0.0515962 0.549535 
0.0065625 0.000609375 3.89702 2.80053e+21 1.86235e-05 4.44888 0.643878 -2.48919 
0.0061875 0.000703125 4.04434 2.68614e+21 1.78629e-05 13.431 0.868968 1.2938 
0.0065625 0.000703125 3.99316 2.88761e+21 1.92026e-05 5.44116 7.11584 -3.3345 
0.0069375 0.000609375 4.30766 3.06619e+21 2.03902e-05 8.89162 -0.772182 2.58391 
0.0073125 0.000609375 3.93483 2.83373e+21 1.88443e-05 12.3885 -1.37525 -3.35162 
0.0069375 0.000703125 4.12589 2.95476e+21 1.96491e-05 9.66313 0.896149 -2.03986 
0.0073125 0.000703125 3.87515 2.82525e+21 1.87879e-05 12.7004 -1.88201 -3.407 
0.0076875 0.000609375 4.19622 2.79499e+21 1.85867e-05 7.39836 0.973318 3.01899 
0.0080625 0.000609375 3.76836 2.67323e+21 1.7777e-05 4.15992 0.411855 -3.63222 
0.0076875 0.000703125 3.97115 2.79647e+21 1.85965e-05 6.00393 0.139391 1.62704 
0.0080625 0.000703125 4.09465 2.63338e+21 1.7512e-05 9.09749 6.02486 3.00559 
0.0084375 0.000609375 4.23895 2.62895e+21 1.74825e-05 3.44868 -4.94614 10.6424 
0.0088125 0.000609375 3.99129 2.6677e+21 1.77402e-05 8.09477 -3.31995 0.480464 
0.0084375 0.000703125 3.85041 2.70533e+21 1.79905e-05 13.0453 -0.380237 1.95279 
0.0088125 0.000703125 4.23442 2.76289e+21 1.83732e-05 5.18038 -3.08334 -0.801533 
0.0099375 0.000609375 4.05214 2.49612e+21 1.65992e-05 11.948 -1.11824 -12.7898 
0.0103125 0.000609375 3.93477 2.72858e+21 1.8145e-05 7.81088 0.340957 -1.11552 
0.0099375 0.000703125 4.03776 2.71013e+21 1.80223e-05 9.45036 -0.795967 -0.159324 
0.0103125 0.000703125 4.06569 2.55184e+21 1.69697e-05 -2.54608 2.45624 -3.16 
0.0106875 0.000421875 3.69451 2.52625e+21 1.67996e-05 6.50427 3.49294 5.19865 
0.0110625 0.000421875 3.9404 2.51027e+21 1.66933e-05 10.9422 0.725932 1.32118 
0.0106875 0.000515625 3.85106 2.57059e+21 1.70944e-05 10.734 5.35825 -4.4985 
0.0110625 0.000515625 3.78882 2.3809e+21 1.5833e-05 19.7161 4.66003 -2.42289 
0.0114375 0.000421875 3.79611 2.19848e+21 1.46199e-05 10.2647 -0.942446 0.766296 
0.0118125 0.000421875 3.895 2.47829e+21 1.64806e-05 10.841 8.75487 1.39671 
0.0114375 0.000515625 3.83291 2.45939e+21 1.6355e-05 7.45189 3.45621 -6.73838 
0.0118125 0.000515625 3.83381 2.35474e+21 1.5659e-05 12.4737 -3.56984 -6.75465 
0.0106875 0.000609375 3.85865 2.39096e+21 1.58999e-05 10.588 1.01796 -6.51116 
0.0110625 0.000609375 4.07525 2.28581e+21 1.52006e-05 4.41097 0.123176 2.84538 
0.0106875 0.000703125 3.9906 2.52785e+21 1.68102e-05 13.5409 2.97062 -0.818292 
0.0110625 0.000703125 4.05149 2.53265e+21 1.68421e-05 16.3939 1.49954 2.63771 
0.0061875 0.000796875 4.02404 2.7976e+21 1.8604e-05 9.92837 0.0293596 1.70594 
0.0065625 0.000796875 4.01413 2.75104e+21 1.82944e-05 3.90296 0.279081 -1.0553 
0.0061875 0.000890625 3.94345 2.74547e+21 1.82574e-05 11.8853 2.522 4.93138 
0.0065625 0.000890625 3.87739 3.03327e+21 2.01713e-05 6.65902 -0.380476 2.4486 
0.0069375 0.000796875 3.95248 2.86108e+21 1.90262e-05 6.54543 -0.860265 1.9232 
0.0073125 0.000796875 3.96002 2.63677e+21 1.75345e-05 7.66979 -2.26398 0.454436 
0.0069375 0.000890625 3.8407 2.74926e+21 1.82826e-05 8.93916 -2.51954 2.18453 
0.0073125 0.000890625 4.13864 2.74168e+21 1.82322e-05 5.71518 7.99066 -4.91173 
0.0061875 0.000984375 4.03759 2.90542e+21 1.93211e-05 9.48044 -1.75471 0.874489 
0.0065625 0.000984375 3.95658 2.96709e+21 1.97312e-05 9.39386 4.53623 1.4926 
0.0069375 0.000984375 3.92267 2.76152e+21 1.83641e-05 10.1588 1.09035 -0.320509 
0.0073125 0.000984375 4.07145 2.7718e+21 1.84325e-05 6.16777 -0.542951 0.772328 
0.0069375 0.00107813 3.97032 2.75914e+21 1.83483e-05 6.92624 2.1413 4.9984 
0.0073125 0.00107813 3.91865 2.74975e+21 1.82859e-05 6.51169 2.32671 -4.67521 
0.0076875 0.000796875 3.73118 2.80183e+21 1.86322e-05 8.87988 2.39935 3.33971 
0.0080625 0.000796875 3.80162 2.71295e+21 1.80411e-05 6.6225 0.167416 -0.323969 
0.0080625 0.000890625 4.09436 2.7076e+21 1.80056e-05 9.04249 -3.13625 2.29439 
0.0084375 0.000796875 4.03889 2.56058e+21 1.70279e-05 14.855 -3.48016 -5.89799 
0.0088125 0.000796875 4.08521 2.58598e+21 1.71968e-05 12.1355 -0.616519 -4.16334 
0.0084375 0.000890625 4.07281 2.62051e+21 1.74264e-05 8.48304 1.00982 3.47221 
0.0088125 0.000890625 3.80309 2.67731e+21 1.78041e-05 9.57387 1.67606 -3.11071 
0.0076875 0.000984375 3.94793 2.87116e+21 1.90932e-05 6.15512 1.29142 6.05242 
0.0076875 0.00107813 3.88451 2.86863e+21 1.90764e-05 7.70629 -2.11617 -0.428911 
0.0080625 0.00107813 3.82701 2.74662e+21 1.82651e-05 11.3315 -1.29362 2.45637 
0.0084375 0.000984375 4.08851 2.86431e+21 1.90476e-05 8.1628 -5.14775 -3.22592 
0.0088125 0.00107813 3.96549 2.8217e+21 1.87643e-05 10.82 -3.43318 3.18917 
0.0076875 0.00117188 3.87954 2.83196e+21 1.88326e-05 4.67616 0.200432 -1.81734 
0.0080625 0.00117188 4.02165 2.76577e+21 1.83924e-05 9.10468 -0.341648 0.107486 
0.0088125 0.00117188 4.10831 2.70533e+21 1.79905e-05 9.2976 -1.72988 1.6143 
0.0084375 0.00135937 3.9474 2.75892e+21 1.83468e-05 4.76634 2.54748 1.46197 
0.0091875 0.000796875 4.11227 2.57328e+21 1.71123e-05 4.51002 0.631359 2.7644 
0.0095625 0.000796875 4.15164 2.71295e+21 1.80411e-05 11.3052 0.573066 1.93234 
0.0091875 0.000890625 3.78763 2.65459e+21 1.7653e-05 14.428 -2.33234 1.32465 
0.0095625 0.000890625 4.20084 2.78334e+21 1.85092e-05 8.3786 -2.08681 1.06633 
0.0099375 0.000796875 4.03418 2.57751e+21 1.71405e-05 10.8731 -2.10167 0.741022 
0.0103125 0.000796875 3.92809 2.52249e+21 1.67746e-05 12.2427 0.832341 1.55471 
0.0099375 0.000890625 4.10043 2.60157e+21 1.73004e-05 7.22566 -2.61277 2.57762 
0.0103125 0.000890625 4.07373 2.75305e+21 1.83078e-05 5.24261 4.77404 2.70099 
0.0091875 0.000984375 4.07083 2.50456e+21 1.66553e-05 6.90699 -2.32445 -6.49027 
0.0095625 0.000984375 4.04464 2.45316e+21 1.63135e-05 6.05441 -3.18209 -1.5858 
0.0091875 0.00107813 4.04657 2.64339e+21 1.75786e-05 8.22627 -0.80032 0.229182 
0.0099375 0.000984375 3.96786 2.67929e+21 1.78173e-05 8.92398 -1.97397 1.71676 
0.0103125 0.000984375 4.14925 2.62105e+21 1.743e-05 9.84666 1.98805 1.14523 
0.0099375 0.00107813 3.66597 2.3681e+21 1.57479e-05 12.0143 -1.40638 0.223075 
0.0103125 0.00107813 3.95102 2.48385e+21 1.65176e-05 7.67597 4.3525 0.654227 
0.0114375 0.000796875 3.71297 2.27702e+21 1.51422e-05 8.6857 -1.09961 5.03183 
0.0118125 0.000796875 4.20698 2.42515e+21 1.61272e-05 7.95471 -0.633642 5.15482 
0.0114375 0.000890625 3.94016 2.49554e+21 1.65953e-05 10.0348 -2.20803 3.17418 
0.0118125 0.000890625 3.91939 2.40844e+21 1.60161e-05 6.55274 -0.132471 -6.55692 
0.0106875 0.000984375 4.06141 2.39834e+21 1.5949e-05 10.9157 -0.554968 -2.7342 
0.0110625 0.000984375 4.14794 2.43946e+21 1.62224e-05 1.12372 -2.29205 -2.27216 
0.0106875 0.00107813 3.5634 2.4119e+21 1.60391e-05 9.40316 2.91302 -2.10222 
0.0110625 0.00107813 4.08633 2.52765e+21 1.68088e-05 7.76627 -0.359709 -3.24266 
0.0114375 0.000984375 4.25099 2.44288e+21 1.62452e-05 8.51774 1.98066 0.216852 
0.0118125 0.000984375 4.03064 2.59364e+21 1.72477e-05 4.37114 1.89834 3.87811 
0.0114375 0.00107813 3.93282 2.57457e+21 1.71209e-05 3.53119 -0.69686 4.12356 
0.0118125 0.00107813 3.80132 2.32118e+21 1.54358e-05 11.0468 -4.10673 1.32866 
0.0091875 0.00117188 3.94687 2.70821e+21 1.80096e-05 5.7311 1.82157 -0.675462 
0.0091875 0.00126563 4.01211 2.49428e+21 1.65869e-05 7.14088 -2.29887 0.0212275 
0.0099375 0.00117188 3.9797 2.59021e+21 1.72249e-05 6.94332 3.64667 -2.14933 
0.0103125 0.00126563 4.24315 2.57955e+21 1.7154e-05 10.192 -2.69483 -2.12222 
0.0095625 0.00135937 4.07201 2.68449e+21 1.78519e-05 8.67309 -4.29555 -4.92798 
0.0099375 0.00135937 4.04328 2.60262e+21 1.73074e-05 11.098 2.74393 4.79241 
0.0106875 0.00117188 3.87472 2.39451e+21 1.59235e-05 7.14513 -3.02243 1.57495 
0.0106875 0.00126563 3.82392 2.5609e+21 1.703e-05 2.45618 4.43102 3.13086 
0.0110625 0.00126563 4.06746 2.54757e+21 1.69414e-05 8.28069 -4.97034 1.82881 
0.0114375 0.00117188 3.89522 2.47797e+21 1.64785e-05 7.12594 3.23134 6.54069 
0.0118125 0.00117188 4.15037 2.38875e+21 1.58852e-05 6.35467 2.29711 1.87913 
0.0118125 0.00126563 3.69444 2.43032e+21 1.61616e-05 10.3609 -5.93407 -4.57337 
0.0118125 0.00145312 3.83993 2.36043e+21 1.56969e-05 7.50822 -0.161915 0.671489 
0.0046875 0.00154688 0 0 0 0 0 0 
0.0050625 0.00154688 4.0639 3.08732e+21 2.05307e-05 -1.61531 -2.75042 1.15358 
0.0046875 0.00164063 0 0 0 0 0 0 
0.0046875 0.00173438 0 0 0 0 0 0 
0.0050625 0.00173438 4.11669 3.29318e+21 2.18997e-05 5.74437 -12.5964 1.21855 
0.0046875 0.00182813 0 0 0 0 0 0 
0.0054375 0.00201563 3.89408 3.095e+21 2.05817e-05 7.4247 0.560434 -1.66485 
0.0058125 0.00201563 4.0715 3.10519e+21 2.06495e-05 6.18145 -0.740628 -1.35774 
0.0061875 0.00201563 3.98707 3.0746e+21 2.04461e-05 8.62075 6.19897 2.65351 
0.0065625 0.00201563 3.92072 3.0797e+21 2.048e-05 0.55266 -2.9966 3.89669 
0.0069375 0.00201563 3.87104 2.84005e+21 1.88864e-05 2.05844 3.51302 -0.367576 
0.0073125 0.00201563 4.04222 2.66669e+21 1.77335e-05 3.91362 9.38614 5.00746 
0.0076875 0.00201563 4.02429 2.67179e+21 1.77674e-05 2.66665 1.90598 1.90682 
0.0080625 0.00201563 3.89381 2.80946e+21 1.86829e-05 3.25558 2.42377 4.1826 
0.0084375 0.00201563 3.90245 2.68709e+21 1.78691e-05 6.49608 -3.76125 -1.29272 
0.0088125 0.00201563 4.08311 2.631e+21 1.74962e-05 8.11439 4.80466 -1.64824 
0.0091875 0.00201563 4.0381 2.6361e+21 1.75301e-05 -1.24775 -1.30179 2.91595 
0.0095625 0.00201563 4.02082 2.72278e+21 1.81065e-05 9.03482 3.41511 -5.40156 
0.0099375 0.00201563 4.2165 2.6208e+21 1.74283e-05 6.489 1.63056 -9.97708 
0.0103125 0.00201563 4.08591 2.81456e+21 1.87168e-05 8.11262 -0.357466 3.03952 
0.0106875 0.00201563 3.97883 2.22309e+21 1.47836e-05 8.13918 -2.33027 9.5408 
0.0110625 0.00201563 4.2562 2.46784e+21 1.64111e-05 6.23435 0.0201075 -3.7864 
0.0114375 0.00201563 4.13274 2.46784e+21 1.64111e-05 4.61404 2.04964 -2.19141 
0.0118125 0.00201563 3.8565 2.39645e+21 1.59364e-05 5.32778 -4.83062 0.634135 
0.0129375 0.00154688 3.9786 2.41579e+21 1.6065e-05 3.48189 0.667305 -0.567256 
0.0133125 0.00164063 3.99429 2.26541e+21 1.5065e-05 10.0441 -3.40698 8.33912 
0.0133125 0.00173438 3.93522 2.34714e+21 1.56084e-05 12.4663 6.11345 0.63849 
0.0136875 0.00154688 4.08587 2.14761e+21 1.42816e-05 11.8815 -1.34973 -1.74173 
0.0144375 0.00154688 3.99878 2.17813e+21 1.44846e-05 1.10505 -2.99846 -7.0868 
0.0121875 0.00201563 4.18794 2.27918e+21 1.51566e-05 6.26009 -2.92725 -0.323716 
0.0125625 0.00201563 3.75545 2.40665e+21 1.60042e-05 3.01265 3.06853 -1.22322 
0.0129375 0.00201563 4.00532 2.41685e+21 1.60721e-05 -5.40157 -2.64215 -2.88319 
0.0133125 0.00201563 3.97045 2.38116e+21 1.58347e-05 6.56643 -5.5043 -0.824255 
0.0136875 0.00201563 3.7963 2.23839e+21 1.48853e-05 7.2629 -4.75603 -1.73994 
0.0140625 0.00201563 3.77431 2.40665e+21 1.60042e-05 11.3286 1.3856 0.708404 
0.0144375 0.00201563 3.98818 2.16191e+21 1.43767e-05 0.986476 3.15163 6.84918 
0.0148125 0.00201563 4.25662 1.97835e+21 1.3156e-05 5.21441 0.137637 0.47685 
0.0155625 0.00164063 4.06604 1.99816e+21 1.32878e-05 4.17149 4.76208 -0.767997 
0.0163125 0.00154688 3.98995 2.06039e+21 1.37016e-05 7.01671 -2.15786 0.615862 
0.0159375 0.00164063 3.92764 2.08245e+21 1.38483e-05 12.7447 -2.6059 -0.857364 
0.0163125 0.00173438 3.94655 1.94655e+21 1.29445e-05 7.36744 2.14843 -0.00460755 
0.0166875 0.00154688 4.16872 1.96228e+21 1.30492e-05 2.02125 2.51113 2.13212 
0.0170625 0.00154688 3.92603 1.98626e+21 1.32087e-05 5.89194 -0.887221 -0.848107 
0.0166875 0.00164063 3.8791 2.05161e+21 1.36432e-05 8.40245 -2.47257 -3.23945 
0.0170625 0.00164063 4.12763 2.00844e+21 1.33561e-05 8.37841 -0.346495 -0.616283 
0.0174375 0.00154688 3.84549 1.84454e+21 1.22662e-05 9.07945 -4.4808 0.343713 
0.0178125 0.00154688 4.16385 1.86199e+21 1.23822e-05 8.04863 2.14155 -1.67974 
0.0174375 0.00164063 4.09432 1.98583e+21 1.32058e-05 10.8123 0.0498658 5.14422 
0.0170625 0.00173438 3.801 2.12156e+21 1.41084e-05 3.3394 2.63165 -3.55202 
0.0170625 0.00182813 4.0712 1.94266e+21 1.29187e-05 8.85502 -1.6642 5.53475 
0.0178125 0.00182813 4.16557 1.72127e+21 1.14465e-05 5.3188 -2.26964 -2.55218 
0.0155625 0.00192187 4.04001 2.23923e+21 1.48909e-05 3.74348 0.935609 0.870795 
0.0151875 0.00201563 4.17718 1.95795e+21 1.30204e-05 9.84893 -1.31082 -3.87928 
0.0155625 0.00201563 4.20103 1.99875e+21 1.32917e-05 9.73509 -8.68959 -1.98532 
0.0159375 0.00201563 3.7941 2.14661e+21 1.4275e-05 14.4134 0.316079 6.70892 
0.0163125 0.00201563 3.67267 1.88147e+21 1.25118e-05 6.5336 -5.83814 -2.54558 
0.0166875 0.00201563 3.97931 1.7438e+21 1.15963e-05 14.016 1.79429 3.1576 
0.0170625 0.00201563 3.9971 1.83048e+21 1.21727e-05 0.144595 -4.62303 -1.29022 
0.0178125 0.00192187 3.90406 1.89879e+21 1.26269e-05 8.67698 -2.20487 -0.910266 
0.0174375 0.00201563 3.70018 2.02424e+21 1.34612e-05 3.13789 5.80497 -3.63537 
0.0178125 0.00201563 3.88946 2.00894e+21 1.33595e-05 5.47023 6.58376 2.42427 
0.0054375 0.000421875 3.92201 2.94996e+21 1.96172e-05 3.19597 3.88428 -4.8136 
0.0058125 0.000421875 3.87541 3.02991e+21 2.01489e-05 6.61133 0.34096 -5.0538 
0.0054375 0.000515625 3.88821 2.81914e+21 1.87473e-05 1.52648 -4.88311 -3.97283 
0.0058125 0.000515625 4.05558 3.00229e+21 1.99652e-05 3.0311 -1.39059 -1.23589 
0.0054375 0.000609375 3.85356 2.91675e+21 1.93964e-05 5.27732 0.36094 0.715999 
0.0058125 0.000609375 3.96504 2.77285e+21 1.84395e-05 11.6268 -2.83133 0.404816 
0.0054375 0.000703125 3.8212 2.73891e+21 1.82137e-05 4.20799 -5.93498 2.36863 
0.0058125 0.000703125 3.93929 3.01232e+21 2.00319e-05 4.81768 -1.32565 -1.46751 
0.0046875 0.00117188 0 0 0 0 0 0 
0.0050625 0.00117188 4.04811 3.31979e+21 2.20766e-05 9.44139 4.4612 -1.00773 
0.0046875 0.00126563 0 0 0 0 0 0 
0.0050625 0.00126563 3.99989 2.86202e+21 1.90325e-05 -0.731198 1.26886 -6.61627 
0.0076875 0.000421875 3.85293 2.79807e+21 1.86071e-05 16.2453 0.552179 -4.0796 
0.0080625 0.000421875 3.91846 2.74211e+21 1.8235e-05 8.82662 -0.9595 3.81868 
0.0076875 0.000515625 3.91896 2.87147e+21 1.90953e-05 12.3252 8.25006 3.48058 
0.0080625 0.000515625 4.05164 2.60983e+21 1.73554e-05 8.22011 -2.15284 0.977013 
0.0084375 0.000421875 3.82393 2.73411e+21 1.81818e-05 5.81898 6.03782 -9.44906 
0.0088125 0.000421875 3.94362 2.77408e+21 1.84477e-05 10.5168 1.05639 -2.74469 
0.0084375 0.000515625 4.01422 2.81914e+21 1.87473e-05 10.9017 -0.0298242 3.32748 
0.0088125 0.000515625 3.77204 2.40706e+21 1.6007e-05 12.6311 4.20338 -2.25601 
0.0091875 0.000421875 4.08766 2.78208e+21 1.85008e-05 10.3324 -3.35164 1.32587 
0.0095625 0.000421875 3.96811 2.55024e+21 1.69591e-05 6.41416 -1.0152 -4.86799 
0.0091875 0.000515625 3.88149 2.74065e+21 1.82253e-05 13.349 1.74114 -3.63559 
0.0095625 0.000515625 3.93891 2.39398e+21 1.592e-05 13.6272 5.37116 2.85715 
0.0091875 0.000609375 3.95564 2.78946e+21 1.85499e-05 5.95684 3.52715 6.00342 
0.0095625 0.000609375 4.49492 2.63449e+21 1.75193e-05 3.85078 4.69507 3.26306 
0.0091875 0.000703125 4.04099 2.73411e+21 1.81818e-05 8.03414 2.21581 -3.73753 
0.0095625 0.000703125 3.91916 2.52306e+21 1.67783e-05 8.81928 -3.02112 -1.15235 
0.0106875 0.000796875 4.08658 2.45477e+21 1.63243e-05 12.2552 1.24388 -4.45858 
0.0110625 0.000796875 3.98159 2.46747e+21 1.64087e-05 9.83245 0.560398 3.68404 
0.0106875 0.000890625 3.94275 2.55992e+21 1.70234e-05 2.19822 1.3508 0.670008 
0.0110625 0.000890625 4.17999 2.44631e+21 1.6268e-05 14.0848 7.79846 5.33121 
0.00534375 0.00142969 3.98381 3.19884e+21 2.12723e-05 8.47641 0.592755 4.7218 
0.00553125 0.00142969 4.32325 3.16109e+21 2.10213e-05 1.54132 -2.20422 -0.0664695 
0.00534375 0.00147656 4.2612 3.03333e+21 2.01717e-05 1.41605 -10.2829 9.51083 
0.00553125 0.00147656 3.98433 3.11556e+21 2.07185e-05 10.8468 2.33074 4.08351 
0.00571875 0.00142969 4.04981 3.14222e+21 2.08958e-05 0.801851 8.05057 2.91592 
0.00590625 0.00142969 4.1306 2.90632e+21 1.9327e-05 5.34457 9.9758 -4.30943 
0.00571875 0.00147656 4.16134 2.87801e+21 1.91388e-05 8.94645 -4.55625 -4.10082 
0.00590625 0.00147656 4.19989 3.23434e+21 2.15083e-05 5.32134 -7.23641 1.32313 
0.00721875 0.00124219 4.00708 3.14952e+21 2.09443e-05 11.9693 1.72744 5.76129 
0.00740625 0.00124219 4.25209 2.48704e+21 1.65388e-05 8.08764 5.20583 11.1095 
0.00721875 0.00128906 3.92689 2.87801e+21 1.91388e-05 13.224 -9.95949 -11.7633 
0.00740625 0.00128906 4.35459 2.9408e+21 1.95564e-05 -4.82331 -6.78083 -0.185583 
0.00984375 0.00124219 4.33468 2.59564e+21 1.7261e-05 11.7198 2.66249 -8.31521 
0.0100313 0.00124219 3.81377 2.58478e+21 1.71888e-05 2.99508 -3.00489 4.90085 
0.00984375 0.00128906 3.80059 2.53265e+21 1.68421e-05 14.8555 3.85854 5.56583 
0.0100313 0.00128906 3.9892 2.74196e+21 1.8234e-05 8.5246 0.496805 3.69016 
0.00496875 0.00161719 3.67316 3.32848e+21 2.21344e-05 -6.28485 4.93954 -12.6486 
0.00515625 0.00161719 4.09711 3.11159e+21 2.06921e-05 2.87595 -11.0724 -1.68545 
0.00496875 0.00166406 3.79113 2.94287e+21 1.95701e-05 -1.66469 -2.51974 -5.46126 
0.00515625 0.00166406 4.07932 3.0969e+21 2.05944e-05 -2.25693 -7.06682 -3.0911 
0.00534375 0.00171094 4.04542 2.94109e+21 1.95583e-05 4.92042 -5.3081 3.03356 
0.00553125 0.00171094 4.11857 3.01206e+21 2.00302e-05 -0.480958 -1.74279 3.67914 
0.00534375 0.00175781 4.19593 3.1236e+21 2.0772e-05 5.44404 -3.63936 5.70072 
0.00553125 0.00175781 4.00849 2.97778e+21 1.98023e-05 3.88539 -1.92318 2.8864 
0.00571875 0.00180469 4.04114 2.74346e+21 1.8244e-05 6.98799 -3.61868 -2.78966 
0.00590625 0.00180469 3.89245 3.07985e+21 2.0481e-05 1.60274 1.22691 2.42425 
0.00571875 0.00185156 3.82168 3.22046e+21 2.14161e-05 -0.741702 8.11862 -0.594259 
0.00590625 0.00185156 4.00519 2.99459e+21 1.9914e-05 13.6973 -3.14515 -5.54188 
0.00534375 0.00189844 4.07274 3.11962e+21 2.07455e-05 3.99015 -3.44635 -0.505448 
0.00553125 0.00189844 4.07358 2.89222e+21 1.92333e-05 0.626653 3.41332 0.917826 
0.00534375 0.00194531 4.27292 2.96817e+21 1.97383e-05 12.2765 -1.49303 0.524638 
0.00553125 0.00194531 3.93022 2.68383e+21 1.78475e-05 3.90395 4.11286 8.58112 
0.00609375 0.00161719 4.23062 2.94475e+21 1.95826e-05 3.45163 -1.35009 -5.94434 
0.00628125 0.00161719 3.9388 2.84464e+21 1.89169e-05 3.38932 -4.04889 7.84796 
0.00609375 0.00166406 4.00598 2.81316e+21 1.87075e-05 8.58651 -4.836 -1.06842 
0.00628125 0.00166406 4.04227 2.78883e+21 1.85457e-05 12.7466 1.57391 7.00048 
0.00721875 0.00152344 3.65714 2.55922e+21 1.70188e-05 1.04078 -1.65694 1.38513 
0.00740625 0.00152344 3.78041 2.79831e+21 1.86088e-05 9.43547 0.774592 0.00612328 
0.00721875 0.00157031 4.02641 2.8866e+21 1.91959e-05 1.23314 1.62935 -5.8225 
0.00740625 0.00157031 3.90473 2.72337e+21 1.81104e-05 3.39916 -8.16134 1.39043 
0.00684375 0.00161719 3.88213 2.78625e+21 1.85286e-05 0.943388 -2.63168 -1.39442 
0.00703125 0.00161719 3.73887 2.7362e+21 1.81957e-05 5.34303 -8.06863 -2.0273 
0.00684375 0.00166406 3.85889 2.95908e+21 1.96779e-05 4.57338 1.53992 3.77135 
0.00703125 0.00166406 4.10124 2.65912e+21 1.76832e-05 -1.84682 1.18944 7.81055 
0.00609375 0.00171094 3.89982 3.07514e+21 2.04497e-05 3.04322 -3.37687 -5.31079 
0.00628125 0.00171094 3.86128 3.02783e+21 2.0135e-05 11.3865 -1.64613 -0.279255 
0.00609375 0.00175781 3.98793 2.94708e+21 1.95981e-05 2.75399 7.04079 -1.07236 
0.00628125 0.00175781 3.89002 2.58637e+21 1.71994e-05 6.61715 -7.22701 -1.71801 
0.00759375 0.00161719 4.0134 2.65278e+21 1.7641e-05 18.8476 2.67896 6.92513 
0.00778125 0.00161719 3.98319 2.47759e+21 1.6476e-05 0.0161495 0.430298 -9.86816 
0.00759375 0.00166406 3.92291 2.51319e+21 1.67127e-05 -2.38325 -4.09531 -8.98029 
0.00778125 0.00166406 3.72671 2.73208e+21 1.81684e-05 11.3787 8.07873 7.1718 
0.00796875 0.00161719 3.8745 2.78625e+21 1.85286e-05 17.4713 -0.715762 -1.5572 
0.00815625 0.00161719 4.49182 2.55267e+21 1.69753e-05 12.5899 3.07418 -2.85124 
0.00796875 0.00166406 4.06039 2.80505e+21 1.86536e-05 -0.408054 -1.27432 4.06048 
0.00815625 0.00166406 3.7978 2.7483e+21 1.82762e-05 0.786935 -1.74171 -9.18597 
0.00871875 0.00161719 4.10505 2.65278e+21 1.7641e-05 2.60156 -1.54668 4.65464 
0.00890625 0.00161719 3.94603 2.6778e+21 1.78074e-05 12.765 -1.71306 1.57473 
0.00871875 0.00166406 3.715 2.85369e+21 1.8977e-05 3.2502 2.38693 -0.374118 
0.00890625 0.00166406 3.84063 2.31862e+21 1.54188e-05 7.3852 0.702689 1.25452 
0.00796875 0.00180469 3.68473 2.73598e+21 1.81943e-05 6.21831 6.8947 6.61325 
0.00815625 0.00180469 3.91146 2.70608e+21 1.79954e-05 -1.78547 7.57099 -7.09302 
0.00796875 0.00185156 3.92945 2.70315e+21 1.79759e-05 4.92932 5.0018 3.50316 
0.00815625 0.00185156 3.83322 2.81244e+21 1.87027e-05 -0.244278 1.54083 4.97533 
0.00834375 0.00180469 4.16148 2.68365e+21 1.78463e-05 3.38228 2.51078 -0.497239 
0.00853125 0.00180469 3.77599 2.6089e+21 1.73492e-05 2.07152 -2.2234 0.742554 
0.00834375 0.00185156 3.7063 2.69586e+21 1.79275e-05 -6.22626 0.129892 3.02075 
0.00853125 0.00185156 3.7778 2.29512e+21 1.52626e-05 10.3342 -2.92701 0.711151 
0.00684375 0.00189844 4.11882 2.65772e+21 1.76738e-05 -6.85074 -1.82616 -2.25751 
0.00703125 0.00189844 3.88129 3.11962e+21 2.07455e-05 6.15091 -2.16231 4.89279 
0.00684375 0.00194531 3.9392 3.03058e+21 2.01534e-05 2.96263 -4.51081 -1.92404 
0.00703125 0.00194531 4.04165 3.093e+21 2.05684e-05 5.3124 -5.30628 0.636841 
0.00721875 0.00189844 4.00648 2.8638e+21 1.90443e-05 -0.826292 -1.96216 6.5818 
0.00740625 0.00189844 3.94071 3.11252e+21 2.06982e-05 2.81342 3.72388 3.58552 
0.00721875 0.00194531 4.17485 2.73238e+21 1.81703e-05 7.22906 6.22479 -2.00698 
0.00740625 0.00194531 4.15433 3.07913e+21 2.04762e-05 -2.19093 -3.05324 -4.51507 
0.00834375 0.00189844 4.18499 2.77852e+21 1.84772e-05 0.293731 1.96834 -0.875286 
0.00853125 0.00189844 3.98196 2.85669e+21 1.8997e-05 -1.00868 -3.30993 -0.734622 
0.00834375 0.00194531 4.13251 2.79479e+21 1.85854e-05 0.0914226 2.69737 1.94727 
0.00853125 0.00194531 4.1094 2.57981e+21 1.71557e-05 -0.0879839 0.220556 3.70078 
0.00946875 0.00161719 4.0061 2.7362e+21 1.81957e-05 9.79141 -3.96395 1.59192 
0.00965625 0.00161719 3.80294 2.88635e+21 1.91943e-05 7.63765 -1.87408 0.111242 
0.00946875 0.00166406 3.4978 2.65101e+21 1.76292e-05 13.7321 -5.26296 8.88823 
0.00965625 0.00166406 4.11186 2.70776e+21 1.80066e-05 11.9308 -8.46302 -4.31308 
0.00984375 0.00161719 4.20558 2.54433e+21 1.69198e-05 3.89519 6.09762 14.4895 
0.0100313 0.00161719 4.31066 2.42754e+21 1.61431e-05 5.06822 4.71029 0.311814 
0.00984375 0.00166406 3.96898 2.60237e+21 1.73058e-05 9.13362 -1.52096 -6.17633 
0.0100313 0.00166406 4.04521 2.61859e+21 1.74136e-05 5.67001 2.29728 -3.48854 
0.0102188 0.00161719 4.13687 2.5777e+21 1.71417e-05 8.77141 -0.768556 2.60442 
0.0104063 0.00161719 4.15013 2.54433e+21 1.69198e-05 11.3363 -4.51671 -2.91197 
0.0102188 0.00166406 3.9017 2.46455e+21 1.63893e-05 10.7448 0.78037 -3.45769 
0.0104063 0.00166406 4.01745 2.26998e+21 1.50954e-05 5.83226 -7.40998 -0.326765 
0.00909375 0.00171094 4.0835 2.47588e+21 1.64646e-05 2.02052 -2.28516 4.36416 
0.00928125 0.00171094 4.17963 2.27875e+21 1.51537e-05 0.857519 4.7239 -0.616611 
0.00909375 0.00175781 3.90899 2.72452e+21 1.8118e-05 6.47292 0.184607 0.841276 
0.00928125 0.00175781 4.18486 2.4866e+21 1.65359e-05 1.05463 -4.71878 -0.821427 
0.0105937 0.00180469 3.95655 2.78831e+21 1.85422e-05 11.6699 -4.60884 8.7339 
0.0107812 0.00180469 4.26481 2.52667e+21 1.68024e-05 -2.4524 -11.1645 2.73986 
0.0105937 0.00185156 4.12735 2.623e+21 1.74429e-05 6.5629 -2.37326 -5.72678 
0.0107812 0.00185156 4.19168 2.49185e+21 1.65708e-05 0.884155 6.96046 9.58657 
0.0109687 0.00180469 3.83602 2.30241e+21 1.5311e-05 6.10063 1.33696 -3.33347 
0.0111562 0.00180469 4.01685 2.30241e+21 1.5311e-05 -0.517675 -1.24177 -2.14741 
0.0109687 0.00185156 3.79454 2.52828e+21 1.68131e-05 4.38191 -6.02844 -2.14835 
0.0111562 0.00185156 4.00978 2.52099e+21 1.67646e-05 9.91029 6.13385 -2.63815 
0.00984375 0.00189844 4.04476 2.58666e+21 1.72013e-05 9.19833 -2.07555 5.53539 
0.0100313 0.00189844 3.76618 2.53691e+21 1.68705e-05 3.94321 10.2477 -11.07 
0.00984375 0.00194531 3.72018 2.46885e+21 1.64178e-05 1.10021 -0.876195 7.61304 
0.0100313 0.00194531 4.03389 2.46191e+21 1.63717e-05 -2.1444 -13.3095 1.79413 
0.0147187 0.00161719 4.21407 1.99375e+21 1.32585e-05 12.7702 4.75026 -0.0896141 
0.0149062 0.00161719 3.91281 2.21065e+21 1.47008e-05 2.37168 -6.99924 12.8232 
0.0147187 0.00166406 3.83213 2.1727e+21 1.44484e-05 7.41109 7.71394 3.28998 
0.0149062 0.00166406 4.02902 2.15648e+21 1.43406e-05 8.18986 5.42017 -4.74165 
0.0128438 0.00189844 3.95842 2.38768e+21 1.58781e-05 10.9846 3.76034 1.00121 
0.0130313 0.00189844 3.89918 2.55823e+21 1.70122e-05 1.03991 -1.41174 -6.93092 
0.0128438 0.00194531 4.11956 2.13597e+21 1.42042e-05 -4.33988 -5.01237 -10.0726 
0.0130313 0.00194531 4.06498 2.17758e+21 1.44809e-05 -1.67328 -3.11288 2.62269 
0.0132188 0.00189844 4.09725 2.31662e+21 1.54055e-05 1.71248 -3.96319 -3.58082 
0.0134063 0.00189844 3.74099 2.33083e+21 1.55e-05 13.3349 -2.95877 -2.30187 
0.0132188 0.00194531 3.89377 2.26773e+21 1.50804e-05 10.4662 6.79104 2.80644 
0.0134063 0.00194531 3.62704 2.22612e+21 1.48037e-05 11.1705 5.39017 -0.356838 