ITEM: TIMESTEP
500000
ITEM: NUMBER OF CELLS
44221
ITEM: BOX BOUNDS oo ao pp
0 0.12
0 0.03
-0.1 0.1
ITEM: CELLS xc yc f_out[1] f_out[2] f_out[3] f_out[4] f_out[5] f_out[6] 
0.003 0.00375 0 0 0 0 0 0 
0.003 0.00525 0 0 0 0 0 0 
0.003 0.00675 0 0 0 0 0 0 
0.003 0.00825 0 0 0 0 0 0 
0.003 0.00975 0 0 0 0 0 0 
0.003 0.01125 0 0 0 0 0 0 
0.003 0.01275 0 0 0 0 0 0 
0.003 0.01425 0 0 0 0 0 0 
0.003 0.01575 0 0 0 0 0 0 
0.003 0.01725 0 0 0 0 0 0 
0.003 0.01875 0 0 0 0 0 0 
0.003 0.02025 0 0 0 0 0 0 
0.003 0.02175 0 0 0 0 0 0 
0.003 0.02325 0 0 0 0 0 0 
0.027 0.02325 0 0 0 0 0 0 
0.003 0.02475 0 0 0 0 0 0 
0.027 0.02475 0 0 0 0 0 0 
0.003 0.02625 0 0 0 0 0 0 
0.027 0.02625 0 0 0 0 0 0 
0.003 0.02775 0 0 0 0 0 0 
0.027 0.02775 0 0 0 0 0 0 
0.003 0.02925 0 0 0 0 0 0 
0.027 0.02925 0 0 0 0 0 0 
0.009 0.01425 0 0 0 0 0 0 
0.009 0.01575 0 0 0 0 0 0 
0.009 0.01725 0 0 0 0 0 0 
0.009 0.01875 0 0 0 0 0 0 
0.009 0.02025 0 0 0 0 0 0 
0.009 0.02175 0 0 0 0 0 0 
0.009 0.02325 0 0 0 0 0 0 
0.009 0.02475 0 0 0 0 0 0 
0.009 0.02625 0 0 0 0 0 0 
0.009 0.02775 0 0 0 0 0 0 
0.009 0.02925 0 0 0 0 0 0 
0.015 0.01425 0 0 0 0 0 0 
0.015 0.01575 0 0 0 0 0 0 
0.015 0.01725 0 0 0 0 0 0 
0.015 0.01875 0 0 0 0 0 0 
0.015 0.02025 0 0 0 0 0 0 
0.015 0.02175 0 0 0 0 0 0 
0.015 0.02325 0 0 0 0 0 0 
0.015 0.02475 0 0 0 0 0 0 
0.015 0.02625 0 0 0 0 0 0 
0.015 0.02775 0 0 0 0 0 0 
0.015 0.02925 0 0 0 0 0 0 
0.021 0.02325 0 0 0 0 0 0 
0.021 0.02475 0 0 0 0 0 0 
0.021 0.02625 0 0 0 0 0 0 
0.021 0.02775 0 0 0 0 0 0 
0.021 0.02925 0 0 0 0 0 0 
0.0015 0.000375 0 0 0 0 0 0 
0.0015 0.001125 0 0 0 0 0 0 
0.0015 0.001875 0 0 0 0 0 0 
0.0015 0.002625 0 0 0 0 0 0 
0.0045 0.002625 0 0 0 0 0 0 
0.0255 0.022125 0 0 0 0 0 0 
0.0285 0.022125 0 0 0 0 0 0 
0.0105 0.000375 1.94789 5.90441e+21 3.92644e-05 5.72182 6.13221 2.41744 
0.0075 0.013125 0 0 0 0 0 0 
0.0105 0.013125 0 0 0 0 0 0 
0.0135 0.000375 1.97551 2.67196e+21 1.77685e-05 3.25557 -2.96635 0.898337 
0.0135 0.013125 0 0 0 0 0 0 
0.0165 0.013125 0 0 0 0 0 0 
0.0195 0.022125 0 0 0 0 0 0 
0.0225 0.022125 0 0 0 0 0 0 
0.00375 0.0001875 1.85617 1.17807e+22 7.83415e-05 33.133 -0.552451 0.857635 
0.00525 0.0001875 1.83219 1.05934e+22 7.04458e-05 47.6621 -0.685619 5.4572 
0.00375 0.0020625 0 0 0 0 0 0 
0.00525 0.0020625 0 0 0 0 0 0 
0.00675 0.0001875 1.68014 6.53408e+21 4.34516e-05 52.3443 -5.94872 0.638359 
0.00825 0.0001875 2.05357 4.87415e+21 3.24131e-05 32.1064 1.57712 2.98825 
0.00825 0.0005625 1.83129 4.95966e+21 3.29817e-05 29.6268 9.33402 2.62229 
0.01125 0.0016875 0 0 0 0 0 0 
0.01125 0.0020625 0 0 0 0 0 0 
0.01125 0.0024375 0 0 0 0 0 0 
0.01125 0.0028125 0 0 0 0 0 0 
0.01125 0.0031875 0 0 0 0 0 0 
0.01125 0.0035625 0 0 0 0 0 0 
0.01125 0.0039375 0 0 0 0 0 0 
0.01125 0.0043125 0 0 0 0 0 0 
0.01125 0.0046875 0 0 0 0 0 0 
0.01125 0.0050625 0 0 0 0 0 0 
0.01125 0.0054375 0 0 0 0 0 0 
0.01125 0.0058125 0 0 0 0 0 0 
0.01125 0.0061875 0 0 0 0 0 0 
0.01125 0.0065625 0 0 0 0 0 0 
0.01125 0.0069375 0 0 0 0 0 0 
0.01125 0.0073125 0 0 0 0 0 0 
0.01125 0.0076875 0 0 0 0 0 0 
0.01125 0.0080625 0 0 0 0 0 0 
0.01125 0.0084375 0 0 0 0 0 0 
0.01125 0.0088125 0 0 0 0 0 0 
0.01125 0.0091875 0 0 0 0 0 0 
0.02475 0.0009375 2.01393 2.64683e+21 1.76014e-05 0.697626 0.569015 -0.668156 
0.02625 0.0009375 1.96209 2.55629e+21 1.69993e-05 4.18205 -0.362273 0.862643 
0.02775 0.0009375 1.8938 2.69814e+21 1.79426e-05 3.97095 0.637759 -0.224886 
0.02925 0.0009375 2.10182 2.59552e+21 1.72602e-05 -1.82272 -0.602575 1.42091 
0.01575 0.0009375 1.99199 2.87016e+21 1.90866e-05 -1.50721 2.06336 -3.05765 
0.01725 0.0009375 1.99531 2.65287e+21 1.76416e-05 0.578215 1.47225 -0.240572 
0.003375 0.00046875 1.97283 1.26123e+22 8.38716e-05 26.5632 -2.47751 0.498865 
0.004125 0.00046875 1.94525 1.24102e+22 8.2528e-05 37.7585 2.12912 -3.13305 
0.003375 0.00065625 1.99609 1.37741e+22 9.15978e-05 27.9708 -4.55879 -2.71809 
0.004125 0.00065625 1.89387 1.25378e+22 8.33766e-05 31.0661 -1.13602 -1.15726 
0.003375 0.00084375 1.92662 1.45784e+22 9.69465e-05 23.5964 -4.0411 2.51082 
0.004125 0.00084375 1.94349 1.1871e+22 7.89421e-05 35.8955 -1.01556 3.31562 
0.004875 0.00084375 1.90342 1.12137e+22 7.45713e-05 39.4612 1.2666 2.30916 
0.005625 0.00084375 1.68751 9.73824e+21 6.47593e-05 45.47 0.518804 -4.84653 
0.004875 0.00103125 1.96741 1.05906e+22 7.04276e-05 34.4442 -0.526977 0.59704 
0.005625 0.00103125 1.89524 8.64808e+21 5.75098e-05 39.1375 -2.79194 1.36667 
0.005625 0.00140625 1.89744 8.65979e+21 5.75876e-05 23.3666 -0.351327 -2.52819 
0.024375 0.00346875 2.03389 2.62326e+21 1.74447e-05 1.29718 4.90119 1.78987 
0.025125 0.00346875 2.00496 2.60042e+21 1.72928e-05 -2.1383 -0.968773 -3.9611 
0.024375 0.00365625 2.01583 2.77351e+21 1.84438e-05 1.82965 -1.8724 -1.62038 
0.025125 0.00365625 2.14354 2.65898e+21 1.76822e-05 1.90049 0.310458 -1.82199 
0.024375 0.00421875 1.9378 2.55126e+21 1.69659e-05 1.9482 -3.20015 -1.29928 
0.027375 0.00384375 1.92137 2.84138e+21 1.88952e-05 5.17632 -1.82603 1.37744 
0.028125 0.00384375 1.99996 2.49099e+21 1.65651e-05 2.3002 0.312845 -1.75473 
0.027375 0.00403125 2.02028 2.69238e+21 1.79043e-05 3.80245 2.82908 4.27124 
0.028125 0.00403125 2.02975 2.59131e+21 1.72322e-05 3.82266 1.71289 -4.02771 
0.025125 0.00459375 1.95053 2.51052e+21 1.6695e-05 2.06789 6.41251 0.606243 
0.025875 0.00459375 2.0176 2.60661e+21 1.7334e-05 0.99224 -5.99956 -1.21362 
0.025875 0.00496875 2.00865 2.55111e+21 1.69649e-05 3.4876 -0.744101 1.49183 
0.029625 0.00459375 1.8999 2.4514e+21 1.63018e-05 5.35029 -0.672064 4.79656 
0.028125 0.00534375 1.95385 2.60929e+21 1.73518e-05 1.12987 -1.25291 -1.26724 
0.024375 0.0216562 2.0117 2.76458e+21 1.83845e-05 0.0921464 -1.20339 0.0320216 
0.025125 0.0216562 1.86618 2.62153e+21 1.74331e-05 2.95408 2.93833 -0.294839 
0.025875 0.0216562 1.97309 2.63583e+21 1.75283e-05 0.895389 0.679314 2.82045 
0.026625 0.0216562 2.03621 2.66444e+21 1.77185e-05 0.302457 -3.2095 -0.132321 
0.027375 0.0216562 1.97343 2.74312e+21 1.82418e-05 -0.0355678 0.918737 -3.86311 
0.028125 0.0216562 2.07987 2.78962e+21 1.8551e-05 -5.0178 0.867848 -0.149105 
0.028875 0.0216562 2.11666 2.71451e+21 1.80515e-05 0.718454 0.293137 -2.85966 
0.029625 0.0216562 1.98163 2.69305e+21 1.79088e-05 -1.57293 -0.168737 2.43004 
0.006375 0.00084375 1.7049 7.25673e+21 4.82573e-05 52.4445 6.83404 -1.93709 
0.007125 0.00084375 1.8376 5.11056e+21 3.39852e-05 50.5963 8.94838 -0.244916 
0.007125 0.00103125 1.77695 5.32274e+21 3.53962e-05 53.2943 17.4014 -2.2974 
0.006375 0.00121875 1.69836 6.70471e+21 4.45863e-05 45.1601 8.50578 -1.91268 
0.007125 0.00121875 1.85354 4.86602e+21 3.23591e-05 42.2835 16.3807 1.39493 
0.006375 0.00140625 1.86904 6.20511e+21 4.1264e-05 40.6657 10.093 1.36736 
0.007125 0.00140625 1.88696 4.64377e+21 3.08811e-05 34.9466 16.8584 -0.155686 
0.007875 0.00159375 1.91167 4.4028e+21 2.92786e-05 20.9399 20.9605 0.10481 
0.008625 0.00159375 1.95739 4.3815e+21 2.9137e-05 8.20573 13.9059 0.0322601 
0.007875 0.00178125 2.11622 4.06007e+21 2.69995e-05 14.2457 21.2963 -1.03379 
0.008625 0.00178125 1.9855 4.25704e+21 2.83093e-05 7.03465 17.5637 3.21182 
0.007875 0.00196875 1.91925 4.26551e+21 2.83656e-05 8.31338 21.7407 2.05642 
0.008625 0.00196875 2.08859 4.22527e+21 2.8098e-05 9.50026 17.9436 -0.20077 
0.007875 0.00215625 2.03231 3.99432e+21 2.65622e-05 5.89703 20.5078 0.105985 
0.008625 0.00215625 2.11392 4.23577e+21 2.81678e-05 5.32709 15.4521 2.82308 
0.006375 0.00234375 1.95163 3.31382e+21 2.20369e-05 1.03365 4.46284 1.80654 
0.007125 0.00234375 2.00133 3.50577e+21 2.33133e-05 -1.91338 14.1279 0.180436 
0.006375 0.00253125 1.90872 3.41207e+21 2.26903e-05 -6.21211 -1.58348 -5.14057 
0.007125 0.00253125 2.04062 3.54118e+21 2.35488e-05 1.43875 9.58336 0.769764 
0.007875 0.00234375 2.01863 3.74721e+21 2.49189e-05 7.91084 15.1524 1.96872 
0.008625 0.00253125 1.92425 3.74238e+21 2.48868e-05 -2.20655 18.4023 -0.513024 
0.008625 0.00271875 1.95783 3.92555e+21 2.61049e-05 -1.68121 19.6037 2.29208 
0.007875 0.00290625 2.03171 3.62555e+21 2.41099e-05 0.582055 14.1653 1.11632 
0.007875 0.00309375 2.02419 3.54484e+21 2.35732e-05 -2.1432 11.7654 -1.49988 
0.008625 0.00309375 2.05463 3.78262e+21 2.51544e-05 -0.958524 15.9651 -1.79946 
0.006375 0.00346875 2.02717 3.48707e+21 2.3189e-05 2.18019 4.83412 1.69151 
0.007125 0.00346875 1.91859 3.51073e+21 2.33463e-05 -2.36745 8.1085 4.04995 
0.006375 0.00365625 1.89128 3.51138e+21 2.33507e-05 -1.09561 8.37212 2.31173 
0.006375 0.00384375 2.03167 3.57197e+21 2.37536e-05 0.589229 4.73174 1.4605 
0.006375 0.00403125 1.95787 3.55323e+21 2.3629e-05 1.84073 5.24646 3.17558 
0.006375 0.00421875 1.94304 3.58645e+21 2.38499e-05 -2.21224 6.88623 -2.61144 
0.006375 0.00440625 1.92822 3.36159e+21 2.23546e-05 3.62373 7.37943 -2.05582 
0.006375 0.00459375 1.99779 3.6078e+21 2.39919e-05 -1.6218 3.78981 -1.41453 
0.006375 0.00478125 1.99999 3.43525e+21 2.28444e-05 -2.06486 2.03427 1.51788 
0.006375 0.00496875 1.93252 3.34833e+21 2.22664e-05 -4.47172 4.80805 -4.65156 
0.006375 0.00515625 2.0134 3.35415e+21 2.23051e-05 -0.0346715 4.64819 -2.64541 
0.009375 0.00459375 1.97115 3.50382e+21 2.33004e-05 -2.21049 5.42355 -3.48529 
0.010125 0.00459375 0 0 0 0 0 0 
0.010125 0.00478125 0 0 0 0 0 0 
0.006375 0.00534375 2.01862 3.37942e+21 2.24731e-05 3.38389 7.8194 1.96187 
0.006375 0.00553125 2.06902 3.39531e+21 2.25788e-05 2.66921 2.35153 2.56541 
0.006375 0.00571875 1.99805 3.25059e+21 2.16164e-05 -1.80597 6.5004 0.432261 
0.006375 0.00590625 2.00989 3.56417e+21 2.37017e-05 -0.198367 4.96146 0.516927 
0.006375 0.00609375 2.0722 3.54505e+21 2.35746e-05 0.739761 5.93161 -0.100168 
0.006375 0.00628125 2.02471 3.29733e+21 2.19273e-05 -0.681227 4.99891 0.824303 
0.006375 0.00646875 1.96305 3.29033e+21 2.18807e-05 0.890181 2.63685 2.11704 
0.006375 0.00665625 2.02127 3.40487e+21 2.26424e-05 -2.14951 2.27567 0.211682 
0.010125 0.00759375 0 0 0 0 0 0 
0.010125 0.00778125 0 0 0 0 0 0 
0.010125 0.00834375 0 0 0 0 0 0 
0.010125 0.00853125 0 0 0 0 0 0 
0.010125 0.00871875 0 0 0 0 0 0 
0.010125 0.00890625 0 0 0 0 0 0 
0.010125 0.00909375 0 0 0 0 0 0 
0.010125 0.00928125 0 0 0 0 0 0 
0.010125 0.00946875 1.96821 2.84535e+21 1.89216e-05 -0.545302 2.51196 0.36544 
0.010875 0.00946875 1.97171 2.84535e+21 1.89216e-05 1.92237 0.162289 3.87999 
0.011625 0.00946875 2.12271 2.7154e+21 1.80574e-05 5.42901 -4.78628 2.56379 
0.013875 0.00309375 2.07421 2.59369e+21 1.72481e-05 -1.93055 -4.01941 -2.9276 
0.014625 0.00309375 2.08147 2.67417e+21 1.77833e-05 -1.54435 -0.935186 -0.773629 
0.013875 0.00328125 1.86335 2.55241e+21 1.69735e-05 6.41804 -0.941594 4.39792 
0.014625 0.00328125 2.14374 2.78005e+21 1.84874e-05 0.0113755 -1.16746 -0.284324 
0.016875 0.00309375 2.00341 2.59735e+21 1.72724e-05 0.914312 -2.94667 4.19856 
0.017625 0.00309375 2.07596 2.59369e+21 1.72481e-05 0.799967 2.64374 -2.19224 
0.016875 0.00328125 2.06703 2.70762e+21 1.80057e-05 -0.81406 2.27134 -0.943754 
0.017625 0.00328125 2.03763 2.65933e+21 1.76846e-05 0.982267 0.193156 1.21281 
0.016875 0.00421875 1.97378 2.55394e+21 1.69837e-05 -0.89255 0.425876 0.533629 
0.017625 0.00421875 2.00636 2.57808e+21 1.71443e-05 1.82221 -0.41014 -1.94895 
0.016875 0.00440625 1.88556 2.56342e+21 1.70467e-05 1.52813 -0.0369135 1.78043 
0.017625 0.00440625 1.87588 2.66616e+21 1.77299e-05 0.391185 3.77655 1.54592 
0.013875 0.00459375 2.00218 2.58444e+21 1.71865e-05 1.10386 -2.5875 1.18737 
0.013875 0.00478125 1.99974 2.56357e+21 1.70477e-05 -4.17089 -1.90747 0.78915 
0.014625 0.00478125 2.08022 2.38603e+21 1.58671e-05 1.55921 -2.02529 -0.288862 
0.017625 0.00496875 2.01022 2.76294e+21 1.83735e-05 1.47551 -0.350488 0.744891 
0.012375 0.00909375 1.91246 2.63224e+21 1.75044e-05 3.57461 5.88987 6.9326 
0.012375 0.00928125 1.90937 2.2864e+21 1.52046e-05 -7.69913 9.56382 6.62548 
0.012375 0.00946875 1.99979 2.81431e+21 1.87151e-05 1.90033 3.70269 -0.548353 
0.022875 0.00346875 2.06318 2.79944e+21 1.86163e-05 1.26382 -2.65269 -1.33843 
0.023625 0.00346875 2.05087 2.57431e+21 1.71192e-05 -2.0852 -0.398967 0.788299 
0.022875 0.00365625 1.97146 2.90352e+21 1.93084e-05 2.5226 -0.413338 -0.658792 
0.023625 0.00365625 2.04931 2.77351e+21 1.84438e-05 7.1927 1.27326 0.60051 
0.019875 0.00440625 1.99291 2.57883e+21 1.71492e-05 1.36284 -1.31846 -1.40928 
0.020625 0.00440625 1.9692 2.66873e+21 1.7747e-05 3.08599 -0.16021 -1.85552 
0.021375 0.00384375 1.94968 2.73244e+21 1.81707e-05 1.34525 0.343672 0.292291 
0.019125 0.00496875 2.01242 2.74244e+21 1.82372e-05 -1.36767 -0.585129 5.48141 
0.018375 0.0132188 0 0 0 0 0 0 
0.018375 0.0134063 0 0 0 0 0 0 
0.018375 0.0154687 0 0 0 0 0 0 
0.018375 0.0156563 0 0 0 0 0 0 
0.018375 0.0158438 0 0 0 0 0 0 
0.018375 0.0160313 0 0 0 0 0 0 
0.018375 0.0169687 0 0 0 0 0 0 
0.018375 0.0171562 0 0 0 0 0 0 
0.018375 0.0177187 0 0 0 0 0 0 
0.018375 0.0179062 0 0 0 0 0 0 
0.018375 0.0188437 0 0 0 0 0 0 
0.018375 0.0190312 0 0 0 0 0 0 
0.018375 0.0195938 0 0 0 0 0 0 
0.018375 0.0197812 0 0 0 0 0 0 
0.018375 0.0199687 0 0 0 0 0 0 
0.018375 0.0201562 0 0 0 0 0 0 
0.018375 0.0203437 0 0 0 0 0 0 
0.018375 0.0205312 0 0 0 0 0 0 
0.018375 0.0207187 0 0 0 0 0 0 
0.018375 0.0209062 0 0 0 0 0 0 
0.018375 0.0210937 0 0 0 0 0 0 
0.018375 0.0212812 0 0 0 0 0 0 
0.019875 0.0216562 1.93897 2.66802e+21 1.77423e-05 1.15616 -0.145577 -3.45842 
0.020625 0.0216562 2.00419 2.64298e+21 1.75758e-05 -2.69136 3.115 -0.0211265 
0.021375 0.0216562 2.0477 2.69305e+21 1.79088e-05 -1.81947 1.86503 0.916274 
0.022125 0.0216562 2.04502 2.47847e+21 1.64818e-05 -2.17084 -2.05955 -0.310785 
0.022875 0.0216562 2.01172 2.72524e+21 1.81229e-05 3.74193 4.22823 0.836279 
0.023625 0.0216562 2.03654 2.68948e+21 1.7885e-05 0.209977 -1.47724 1.91569 
0.01275 0.0020625 1.86407 2.63908e+21 1.75499e-05 1.70218 2.68409 -1.07935 
0.01875 0.0009375 2.02494 2.73435e+21 1.81834e-05 2.06431 1.45602 -1.6536 
0.02175 0.0009375 2.01026 2.66192e+21 1.77018e-05 4.73267 0.413385 -4.25964 
0.02325 0.0009375 1.9889 2.70417e+21 1.79827e-05 2.11676 -2.65585 -4.30898 
0.004125 0.00159375 2.01519 1.27889e+22 8.50459e-05 17.0096 -0.0954427 -0.312748 
0.003375 0.00178125 0 0 0 0 0 0 
0.004125 0.00178125 0 0 0 0 0 0 
0.024375 0.00271875 1.93708 2.57679e+21 1.71357e-05 -1.17382 -1.281 3.21214 
0.025125 0.00271875 1.98048 2.62258e+21 1.74402e-05 3.38939 -0.273954 4.69821 
0.024375 0.00290625 2.02353 2.78829e+21 1.85421e-05 1.24294 -2.96539 1.04756 
0.025125 0.00290625 1.98082 2.63641e+21 1.75321e-05 -1.02232 -0.0657082 -3.18533 
0.027375 0.00234375 2.01612 2.71383e+21 1.8047e-05 5.74572 -0.45878 6.18117 
0.028125 0.00234375 1.89313 2.69934e+21 1.79506e-05 -0.645253 -3.13968 0.672036 
0.027375 0.00253125 1.91666 2.6693e+21 1.77508e-05 -2.95198 1.37722 -0.996313 
0.028125 0.00253125 1.91066 2.62011e+21 1.74238e-05 6.23506 6.13554 0.077407 
0.026625 0.00346875 2.01689 2.63631e+21 1.75314e-05 1.36181 1.00564 -0.00266231 
0.025875 0.00365625 1.95491 2.46397e+21 1.63854e-05 1.70686 0.751038 0.987843 
0.026625 0.00365625 2.02332 2.65588e+21 1.76616e-05 3.27448 -3.01108 -0.0632293 
0.025875 0.00384375 1.99587 2.60583e+21 1.73288e-05 -2.62633 -0.958775 -1.36517 
0.026625 0.00384375 2.01039 2.57638e+21 1.7133e-05 1.72609 -4.30446 -1.09141 
0.025875 0.00403125 1.93528 2.59131e+21 1.72322e-05 0.0694753 3.65995 -0.552706 
0.026625 0.00403125 1.9944 2.63904e+21 1.75496e-05 2.53461 -0.0573335 -1.36506 
0.025875 0.00421875 2.11092 2.53248e+21 1.6841e-05 -1.80005 1.32796 -0.646626 
0.026625 0.00421875 1.97743 2.56735e+21 1.70729e-05 3.18056 0.812759 -3.46216 
0.028875 0.00384375 1.97202 2.57049e+21 1.70938e-05 3.04567 0.748989 -0.0791188 
0.029625 0.00384375 2.01145 2.66177e+21 1.77008e-05 0.715105 1.9062 -0.399579 
0.028875 0.00403125 2.02037 2.65308e+21 1.7643e-05 0.690382 1.18621 2.2323 
0.028875 0.00421875 1.97821 2.60491e+21 1.73227e-05 3.74217 0.754986 -4.75986 
0.029625 0.00421875 1.95722 2.68808e+21 1.78757e-05 4.17463 1.168 -1.44648 
0.027375 0.00459375 1.94514 2.56719e+21 1.70718e-05 2.61348 -0.999017 3.9948 
0.028125 0.00459375 2.00314 2.74211e+21 1.82351e-05 0.765994 -2.64749 0.0437698 
0.028875 0.00534375 1.92279 2.52669e+21 1.68025e-05 3.42755 -2.89252 1.06109 
0.007875 0.00121875 1.974 4.62458e+21 3.07535e-05 29.1477 20.5675 -2.19828 
0.008625 0.00121875 2.05018 4.35528e+21 2.89626e-05 20.4371 18.2825 1.28392 
0.007875 0.00140625 1.92996 4.54719e+21 3.02388e-05 26.8922 20.2232 1.7085 
0.008625 0.00140625 2.08291 4.57134e+21 3.03994e-05 15.693 17.1368 0.349867 
0.006375 0.00309375 1.91041 3.31985e+21 2.2077e-05 6.46926 4.00502 2.68974 
0.007125 0.00309375 1.94882 3.47533e+21 2.31109e-05 0.337784 8.97233 0.173047 
0.006375 0.00328125 2.06287 3.35003e+21 2.22777e-05 -0.357098 1.55965 0.580154 
0.007125 0.00328125 1.94996 3.47679e+21 2.31207e-05 1.25161 8.46534 1.08004 
0.009375 0.00496875 2.05776 3.51336e+21 2.33638e-05 0.670312 8.54997 -1.75494 
0.010125 0.00496875 0 0 0 0 0 0 
0.010125 0.00515625 0 0 0 0 0 0 
0.010125 0.00571875 0 0 0 0 0 0 
0.010125 0.00590625 0 0 0 0 0 0 
0.010125 0.00721875 0 0 0 0 0 0 
0.010125 0.00740625 0 0 0 0 0 0 
0.015375 0.00309375 2.04478 2.63393e+21 1.75157e-05 0.527482 6.85878 1.18913 
0.016125 0.00309375 1.98157 2.57174e+21 1.71021e-05 2.65758 1.21006 1.89436 
0.015375 0.00328125 1.99257 2.75591e+21 1.83268e-05 -0.496143 -5.72894 0.802723 
0.016125 0.00328125 1.99983 2.81455e+21 1.87167e-05 0.374651 -1.19021 -2.55638 
0.016875 0.00346875 2.01945 2.62978e+21 1.7488e-05 0.594974 -1.4403 1.13945 
0.017625 0.00346875 2.0629 2.54821e+21 1.69456e-05 4.57511 -0.067993 -0.43214 
0.017625 0.00365625 2.02012 2.58778e+21 1.72088e-05 -2.54205 2.27245 0.763544 
0.013875 0.00384375 2.02168 2.68533e+21 1.78574e-05 -3.10277 -0.0942338 -0.690195 
0.014625 0.00384375 2.03004 2.81783e+21 1.87386e-05 -0.722797 0.881417 2.24311 
0.013875 0.00403125 2.01493 2.60535e+21 1.73256e-05 -1.71974 3.09815 1.10769 
0.013875 0.00421875 1.91931 2.70954e+21 1.80184e-05 -0.940283 -4.13391 0.359166 
0.014625 0.00421875 1.9832 2.5754e+21 1.71264e-05 -2.18962 -1.5409 1.75902 
0.013875 0.00440625 2.02786 2.68927e+21 1.78837e-05 3.23889 -2.45757 -0.0798101 
0.014625 0.00440625 1.92689 2.65588e+21 1.76616e-05 -0.518099 -0.0381203 3.44315 
0.015375 0.00384375 1.95901 2.49983e+21 1.66239e-05 -2.57285 -1.36198 -2.8474 
0.016125 0.00384375 2.0541 2.65588e+21 1.76616e-05 1.27166 -1.20678 3.44267 
0.015375 0.00403125 2.00768 2.48463e+21 1.65228e-05 0.378063 2.50376 0.435698 
0.016125 0.00403125 1.8613 2.65869e+21 1.76803e-05 -0.349768 1.20591 -1.94946 
0.016875 0.00459375 2.02668 2.64849e+21 1.76125e-05 2.20071 -0.593424 -1.84462 
0.016875 0.00478125 2.00587 2.60381e+21 1.73153e-05 1.67316 -1.54861 -3.28798 
0.012375 0.00646875 2.03262 2.8081e+21 1.86739e-05 11.6703 -3.37572 3.05612 
0.012375 0.00665625 1.76678 2.57597e+21 1.71302e-05 -0.0590706 -7.02113 5.28082 
0.012375 0.00684375 2.07069 2.80306e+21 1.86404e-05 0.88428 6.62542 -0.414448 
0.012375 0.00703125 2.31197 2.41444e+21 1.6056e-05 5.97243 -7.56594 -3.8962 
0.012375 0.00721875 1.72787 2.21062e+21 1.47006e-05 -3.47567 2.10535 -9.44576 
0.012375 0.00740625 1.87936 2.47556e+21 1.64625e-05 -5.89848 -4.06757 5.39436 
0.012375 0.00759375 1.84184 2.70507e+21 1.79887e-05 0.811642 8.11106 8.02612 
0.012375 0.00778125 2.26866 2.83624e+21 1.8861e-05 3.65325 -1.47737 -3.06709 
0.012375 0.00796875 2.27798 2.59907e+21 1.72838e-05 -6.25372 -1.37922 0.595186 
0.012375 0.00815625 1.97686 2.28955e+21 1.52255e-05 0.275224 7.08582 5.35103 
0.018375 0.00346875 2.07332 2.70809e+21 1.80088e-05 3.02622 -1.20033 0.429949 
0.019125 0.00346875 1.86559 2.56779e+21 1.70758e-05 4.97346 -0.243192 -1.80812 
0.018375 0.00365625 1.98464 2.75494e+21 1.83203e-05 -3.09432 -0.330482 2.00282 
0.019125 0.00365625 1.98028 2.62183e+21 1.74352e-05 0.676115 2.00379 0.83971 
0.019875 0.00346875 1.90266 2.66893e+21 1.77484e-05 -0.462789 -1.71818 -1.48536 
0.020625 0.00346875 2.02192 2.69177e+21 1.79003e-05 2.62987 1.53704 1.46558 
0.019875 0.00365625 2.10757 2.68374e+21 1.78469e-05 5.15856 -5.05777 0.407431 
0.020625 0.00365625 2.04221 2.51349e+21 1.67147e-05 1.60969 1.33569 3.3121 
0.021375 0.00346875 2.0219 2.62326e+21 1.74447e-05 2.47939 -2.42336 -4.39095 
0.022125 0.00346875 1.98227 2.73419e+21 1.81824e-05 2.37039 -0.128435 2.61874 
0.021375 0.00365625 1.9126 2.73636e+21 1.81968e-05 -0.18805 -1.10507 -3.79171 
0.022125 0.00365625 2.00939 2.67136e+21 1.77645e-05 -0.0856949 -0.965809 -3.26817 
0.019875 0.00384375 1.96375 2.77366e+21 1.84448e-05 3.37632 2.09655 1.21964 
0.020625 0.00384375 2.04501 2.47038e+21 1.64281e-05 1.51511 -1.54423 -0.470053 
0.019875 0.00403125 2.01095 2.64465e+21 1.75869e-05 2.56009 -4.83783 0.384084 
0.020625 0.00403125 1.92257 2.53516e+21 1.68588e-05 0.119015 -3.95402 -0.819918 
0.019125 0.00421875 2.0405 2.68271e+21 1.784e-05 2.85715 1.22455 -3.37585 
0.018375 0.00440625 2.00617 2.53773e+21 1.68759e-05 -0.165337 -1.4089 1.49804 
0.021375 0.00421875 1.95151 2.7149e+21 1.80541e-05 1.55408 -0.299436 -1.41239 
0.022125 0.00421875 2.11489 2.56735e+21 1.70729e-05 4.21853 -2.59925 -0.118163 
0.021375 0.00440625 1.98967 2.5814e+21 1.71663e-05 3.16796 -1.9305 -1.9615 
0.022125 0.00440625 1.98017 2.74065e+21 1.82253e-05 3.3449 2.59906 0.431522 
0.023625 0.00440625 1.88957 2.65331e+21 1.76445e-05 0.700834 1.53951 1.87144 
0.022125 0.00459375 1.99701 2.68052e+21 1.78255e-05 -1.40372 0.502441 -0.834358 
0.018375 0.0147187 0 0 0 0 0 0 
0.018375 0.0149062 0 0 0 0 0 0 
0.018375 0.0162188 0 0 0 0 0 0 
0.018375 0.0164062 0 0 0 0 0 0 
0.018375 0.0165937 0 0 0 0 0 0 
0.018375 0.0167812 0 0 0 0 0 0 
0.018375 0.0173437 0 0 0 0 0 0 
0.018375 0.0175312 0 0 0 0 0 0 
0.018375 0.0180937 0 0 0 0 0 0 
0.018375 0.0182812 0 0 0 0 0 0 
0.018375 0.0184687 0 0 0 0 0 0 
0.018375 0.0186562 0 0 0 0 0 0 
0.018375 0.0192187 0 0 0 0 0 0 
0.018375 0.0194062 0 0 0 0 0 0 
0.0031875 0.00135937 1.90237 1.54985e+22 0.000103065 18.6766 -2.56548 -0.577368 
0.0035625 0.00135937 1.77056 1.25218e+22 8.32699e-05 23.0655 -6.04415 1.1724 
0.0031875 0.00145312 1.95514 1.53374e+22 0.000101994 24.7851 -8.08259 1.49387 
0.0035625 0.00145312 1.90253 1.30224e+22 8.65989e-05 19.6104 -0.860334 -0.013612 
0.0241875 0.00810938 2.02331 2.52888e+21 1.68171e-05 -0.306689 2.57995 -1.85429 
0.0245625 0.00810938 2.02384 2.69077e+21 1.78936e-05 4.40399 0.140914 2.9329 
0.0241875 0.00820313 2.04121 2.7704e+21 1.84231e-05 -0.898141 0.402582 0.413955 
0.0245625 0.00820313 1.98075 2.70969e+21 1.80194e-05 -1.16872 1.50868 2.14799 
0.0279375 0.0101719 2.14242 2.6659e+21 1.77282e-05 0.081043 1.17825 1.2055 
0.0283125 0.0101719 1.93038 2.61249e+21 1.73731e-05 1.86267 4.17433 -0.150669 
0.0279375 0.0102656 2.06939 2.46956e+21 1.64226e-05 1.19602 1.30161 1.80649 
0.0283125 0.0102656 1.95335 2.55776e+21 1.70091e-05 1.61491 -1.01496 0.92178 
0.0256875 0.0109219 1.9402 2.50356e+21 1.66486e-05 1.5808 4.69634 -3.35355 
0.0260625 0.0109219 2.05713 2.75225e+21 1.83025e-05 -4.89365 2.16741 0.29306 
0.0256875 0.0110156 2.00651 2.66308e+21 1.77095e-05 -1.80939 -3.14395 1.09093 
0.0260625 0.0110156 2.09041 2.6302e+21 1.74908e-05 3.94376 1.7614 2.29615 
0.0241875 0.0116719 1.9644 2.74218e+21 1.82355e-05 3.66567 -2.05509 0.0380687 
0.0245625 0.0116719 1.98329 2.68788e+21 1.78744e-05 -3.23157 -1.99463 0.315826 
0.0241875 0.0117656 2.02959 2.46638e+21 1.64015e-05 0.742706 0.69096 7.13466 
0.0245625 0.0117656 2.09002 2.57027e+21 1.70923e-05 0.480759 -2.39694 -0.341486 
0.0264375 0.0116719 1.90023 2.64522e+21 1.75907e-05 -2.58319 -0.20507 1.4005 
0.0268125 0.0116719 2.08922 2.49007e+21 1.6559e-05 4.46196 -3.05178 0.722906 
0.0264375 0.0117656 1.89402 2.55873e+21 1.70155e-05 5.34668 -3.79011 -2.80203 
0.0268125 0.0117656 2.03731 2.46638e+21 1.64015e-05 1.102 -2.91585 -0.00966198 
0.0271875 0.0112969 2.03445 2.74104e+21 1.82279e-05 -3.55109 -0.615267 -3.26291 
0.0275625 0.0112969 1.92071 2.56071e+21 1.70287e-05 0.896139 -0.911792 -5.03591 
0.0271875 0.0113906 2.05378 2.46014e+21 1.636e-05 -2.61087 -0.220696 -0.742081 
0.0275625 0.0113906 1.93276 2.84963e+21 1.89501e-05 3.06866 1.77452 -2.30716 
0.0286875 0.0114844 1.99063 2.66869e+21 1.77468e-05 1.30351 -1.81187 -0.42577 
0.0290625 0.0114844 2.01411 2.72782e+21 1.814e-05 4.16793 -4.36046 -2.95308 
0.0286875 0.0115781 1.94841 2.73702e+21 1.82012e-05 0.349249 4.08125 -0.870471 
0.0290625 0.0115781 2.04177 2.75657e+21 1.83312e-05 -0.864713 -2.07489 -0.218085 
0.0286875 0.0116719 2.05469 2.50559e+21 1.66622e-05 1.14976 -0.381549 3.06572 
0.0290625 0.0116719 2.11821 2.71891e+21 1.80808e-05 -2.43427 3.34195 -0.214879 
0.0286875 0.0117656 2.05542 2.62799e+21 1.74761e-05 2.94841 2.81328 -0.776959 
0.0290625 0.0117656 1.98097 2.58951e+21 1.72202e-05 2.04154 -2.22369 0.393938 
0.0241875 0.0124219 1.89673 2.57662e+21 1.71345e-05 -2.30792 -1.23896 -4.22727 
0.0245625 0.0124219 2.00927 2.60213e+21 1.73042e-05 0.244663 5.47203 -0.662833 
0.0241875 0.0125156 2.07399 2.62604e+21 1.74632e-05 6.81068 2.0364 1.29843 
0.0245625 0.0125156 2.12504 2.49583e+21 1.65972e-05 0.926596 1.11828 -3.26054 
0.0271875 0.0122344 1.91461 2.5384e+21 1.68804e-05 2.57998 5.13713 0.0294346 
0.0275625 0.0122344 1.95244 2.73451e+21 1.81845e-05 4.1144 3.85224 -1.5195 
0.0271875 0.0123281 1.92881 2.59254e+21 1.72404e-05 1.72466 -4.04143 -6.11031 
0.0275625 0.0123281 2.06019 2.68067e+21 1.78265e-05 2.10406 -0.881232 0.103169 
0.0294375 0.0124219 1.99245 2.70053e+21 1.79585e-05 6.37765 0.252616 0.30112 
0.0298125 0.0124219 1.95487 2.74062e+21 1.82251e-05 2.51266 5.05326 3.33853 
0.0294375 0.0125156 2.04769 2.86116e+21 1.90267e-05 2.29877 -0.229448 1.18451 
0.0298125 0.0125156 2.02072 2.58987e+21 1.72226e-05 -0.0411531 1.65174 -5.41597 
0.0264375 0.0129844 2.02431 2.72997e+21 1.81543e-05 1.26542 -4.21567 1.74388 
0.0268125 0.0129844 2.00359 2.6463e+21 1.75979e-05 0.836449 -0.582294 5.39247 
0.0264375 0.0130781 2.02143 2.57194e+21 1.71034e-05 3.3045 -0.295759 2.38427 
0.0268125 0.0130781 1.94216 2.65502e+21 1.76559e-05 0.575935 4.11385 1.5515 
0.0241875 0.0133594 2.03316 2.3077e+21 1.53462e-05 -5.23028 -3.24836 2.00215 
0.0245625 0.0133594 1.97445 2.816e+21 1.87264e-05 0.278792 0.148648 -3.6474 
0.0245625 0.0134531 1.92156 2.70552e+21 1.79917e-05 2.24982 -5.33306 -0.294615 
0.0286875 0.0127969 1.92419 2.60017e+21 1.72911e-05 3.06389 -0.730564 -0.363857 
0.0290625 0.0127969 1.98042 2.66738e+21 1.77381e-05 2.19041 -1.89361 -1.68811 
0.0286875 0.0128906 1.95793 2.45131e+21 1.63012e-05 2.79698 1.8838 0.322626 
0.0290625 0.0128906 2.00227 2.61286e+21 1.73755e-05 4.761 0.621726 2.79472 
0.0271875 0.0133594 2.06182 2.58218e+21 1.71715e-05 -0.0699807 0.143373 -4.63039 
0.0275625 0.0133594 2.08418 2.55507e+21 1.69912e-05 3.02793 4.89409 0.189157 
0.0271875 0.0134531 2.07387 2.7358e+21 1.81931e-05 -1.29071 2.9138 0.9887 
0.0275625 0.0134531 1.96926 2.58774e+21 1.72085e-05 0.374483 1.3171 3.68582 
0.0294375 0.0131719 1.97346 2.80797e+21 1.8673e-05 1.56583 3.59015 0.780186 
0.0298125 0.0131719 1.98629 2.66705e+21 1.77359e-05 0.70746 1.48524 1.18603 
0.0294375 0.0132656 1.94949 2.55265e+21 1.69751e-05 0.799883 -2.92611 -4.34481 
0.0298125 0.0132656 1.94193 2.82907e+21 1.88133e-05 -0.259226 1.81781 -1.28063 
0.0241875 0.0135469 1.95792 2.59991e+21 1.72894e-05 0.566655 0.00430723 0.659397 
0.0245625 0.0135469 2.12204 2.49631e+21 1.66005e-05 -0.49775 -1.36638 4.7942 
0.0241875 0.0136406 1.93194 2.70152e+21 1.79651e-05 2.54873 -2.9146 -0.740929 
0.0245625 0.0136406 1.92629 2.53558e+21 1.68616e-05 -0.683635 -1.50995 3.46281 
0.0249375 0.0137344 2.02014 2.50508e+21 1.66588e-05 -2.08764 1.82911 4.87152 
0.0253125 0.0137344 1.96374 2.53475e+21 1.68561e-05 0.643483 2.19799 0.672618 
0.0249375 0.0138281 1.92974 2.73691e+21 1.82005e-05 0.782915 3.82096 1.13909 
0.0253125 0.0138281 1.96485 2.47501e+21 1.64588e-05 1.51751 2.97814 -1.21781 
0.0264375 0.0135469 2.07264 2.56983e+21 1.70894e-05 0.237171 1.10171 1.69313 
0.0264375 0.0136406 1.98322 2.78449e+21 1.85168e-05 -0.12307 1.96716 1.03181 
0.0268125 0.0136406 2.01932 2.70484e+21 1.79872e-05 4.5708 2.25444 4.90484 
0.0264375 0.0137344 2.0399 2.54793e+21 1.69438e-05 -0.880294 7.84715 -1.06573 
0.0268125 0.0137344 1.91551 2.76878e+21 1.84124e-05 2.95056 -2.43262 0.499866 
0.0264375 0.0138281 2.00856 2.60923e+21 1.73514e-05 2.59535 -1.31144 2.60352 
0.0268125 0.0138281 1.91638 2.5503e+21 1.69595e-05 -0.800929 -2.13003 -2.09839 
0.0271875 0.0135469 1.98737 2.65672e+21 1.76672e-05 1.81486 -0.659672 -1.7246 
0.0275625 0.0135469 1.93701 2.73692e+21 1.82005e-05 0.753811 -4.55003 -0.498167 
0.0271875 0.0136406 2.02332 2.75794e+21 1.83403e-05 -2.62045 -0.8095 0.0918896 
0.0275625 0.0136406 2.0191 2.64178e+21 1.75678e-05 0.36786 -4.27135 1.45799 
0.0271875 0.0137344 2.08114 2.58419e+21 1.71849e-05 0.367873 -1.48825 5.69127 
0.0275625 0.0137344 1.90644 2.48201e+21 1.65054e-05 -1.04373 -0.802298 -0.168157 
0.0271875 0.0138281 1.93807 2.5012e+21 1.6633e-05 1.09429 -2.50914 -2.28604 
0.0275625 0.0138281 2.07423 2.5012e+21 1.6633e-05 -1.03468 -0.294884 0.100086 
0.0271875 0.0139219 2.13631 2.74775e+21 1.82725e-05 2.18987 -1.1536 -1.67965 
0.0275625 0.0139219 2.04735 2.6567e+21 1.7667e-05 -1.24798 -2.78012 0.475961 
0.0271875 0.0140156 2.07148 2.46773e+21 1.64104e-05 4.54725 1.51122 2.82074 
0.0275625 0.0140156 1.98313 2.72937e+21 1.81503e-05 -1.13968 2.15044 -3.03622 
0.0294375 0.0139219 2.06962 2.50061e+21 1.66291e-05 2.51283 4.17489 -4.76078 
0.0298125 0.0139219 2.01133 2.6697e+21 1.77535e-05 1.54906 2.09749 2.43264 
0.0294375 0.0140156 1.998 2.67769e+21 1.78066e-05 -1.03666 0.654081 1.00774 
0.0298125 0.0140156 1.96984 2.73583e+21 1.81932e-05 -3.25225 1.62496 -0.210116 
0.0241875 0.0142969 2.03649 2.58701e+21 1.72036e-05 0.62017 -1.20611 -0.235686 
0.0245625 0.0142969 1.94425 2.61868e+21 1.74142e-05 -1.874 2.2466 -1.39511 
0.0241875 0.0143906 1.99219 2.64881e+21 1.76146e-05 -1.8261 2.94531 2.28176 
0.0245625 0.0143906 2.13459 2.77149e+21 1.84304e-05 -0.269981 2.30109 0.868705 
0.0249375 0.0142969 1.96872 2.57118e+21 1.70983e-05 1.7559 -1.13391 -2.0895 
0.0253125 0.0142969 2.01452 2.65034e+21 1.76248e-05 2.69045 1.62268 -0.667629 
0.0249375 0.0143906 2.00015 2.79666e+21 1.85978e-05 -0.250366 -0.16968 -2.57112 
0.0253125 0.0143906 1.96174 2.75262e+21 1.83049e-05 -3.60406 -1.46095 -0.946355 