ITEM: TIMESTEP
510001
ITEM: NUMBER OF SURFS
38
ITEM: BOX BOUNDS oo ao pp
0 0.2
0 0.03
-0.1 0.1
ITEM: SURFS id v1x v1y v2x v2y 
1 0.00635 0.00159 0.00318 0.00159 
9 0 0.0254 0.06509 0.0254 
17 0.07009 0.0127 0.07009 0.02223 
25 0.09169 0.00085 0.09216 0.00085 
33 0.09169 0.00327 0.09216 0.00327 
2 0.00635 0.0127 0.00635 0.00159 
10 0 0 0 0.0254 
18 0.07009 0.02223 0.09168 0.02223 
26 0.09169 0.00036 0.09169 0.00085 
34 0.09169 0.00278 0.09169 0.00327 
3 0.01905 0.0127 0.00635 0.0127 
11 0.00318 0 0 0 
19 0.09168 0.02223 0.09168 0.0045 
27 0.09216 0.00157 0.09169 0.00157 
35 0.09216 0.00399 0.09169 0.00399 
4 0.01905 0.02159 0.01905 0.0127 
12 0.00318 0.00159 0.00318 0 
20 0.09168 0.0045 0.09009 0.0045 
28 0.09216 0.00206 0.09216 0.00157 
36 0.09216 0.00448 0.09216 0.00399 
5 0.0635 0.02159 0.01905 0.02159 
13 0.00953 0 0.00953 0.00953 
21 0.09009 0.0045 0.09009 0.0127 
29 0.09169 0.00206 0.09216 0.00206 
37 0.09169 0.00448 0.09216 0.00448 
6 0.0635 0.0035 0.0635 0.02159 
14 0.00953 0.00953 0.0127 0.00953 
22 0.09009 0.0127 0.07009 0.0127 
30 0.09169 0.00157 0.09169 0.00206 
38 0.09169 0.00399 0.09169 0.00448 
7 0.06509 0.0035 0.0635 0.0035 
15 0.0127 0.00953 0.0127 0 
23 0.09216 0.00036 0.09169 0.00036 
31 0.09216 0.00278 0.09169 0.00278 
8 0.06509 0.0254 0.06509 0.0035 
16 0.0127 0 0.00953 0 
24 0.09216 0.00085 0.09216 0.00036 
32 0.09216 0.00327 0.09216 0.00278 
