ITEM: TIMESTEP
500000
ITEM: NUMBER OF CELLS
51086
ITEM: BOX BOUNDS oo ao pp
0 0.12
0 0.03
-0.1 0.1
ITEM: CELLS xc yc f_out[1] f_out[2] f_out[3] f_out[4] f_out[5] f_out[6] 
0.003 0.00375 0 0 0 0 0 0 
0.003 0.00525 0 0 0 0 0 0 
0.003 0.00675 0 0 0 0 0 0 
0.003 0.00825 0 0 0 0 0 0 
0.003 0.00975 0 0 0 0 0 0 
0.003 0.01125 0 0 0 0 0 0 
0.003 0.01275 0 0 0 0 0 0 
0.003 0.01425 0 0 0 0 0 0 
0.003 0.01575 0 0 0 0 0 0 
0.003 0.01725 0 0 0 0 0 0 
0.003 0.01875 0 0 0 0 0 0 
0.003 0.02025 0 0 0 0 0 0 
0.003 0.02175 0 0 0 0 0 0 
0.003 0.02325 0 0 0 0 0 0 
0.027 0.02325 0 0 0 0 0 0 
0.003 0.02475 0 0 0 0 0 0 
0.027 0.02475 0 0 0 0 0 0 
0.003 0.02625 0 0 0 0 0 0 
0.027 0.02625 0 0 0 0 0 0 
0.003 0.02775 0 0 0 0 0 0 
0.027 0.02775 0 0 0 0 0 0 
0.003 0.02925 0 0 0 0 0 0 
0.027 0.02925 0 0 0 0 0 0 
0.009 0.01425 0 0 0 0 0 0 
0.009 0.01575 0 0 0 0 0 0 
0.009 0.01725 0 0 0 0 0 0 
0.009 0.01875 0 0 0 0 0 0 
0.009 0.02025 0 0 0 0 0 0 
0.009 0.02175 0 0 0 0 0 0 
0.009 0.02325 0 0 0 0 0 0 
0.009 0.02475 0 0 0 0 0 0 
0.009 0.02625 0 0 0 0 0 0 
0.009 0.02775 0 0 0 0 0 0 
0.009 0.02925 0 0 0 0 0 0 
0.015 0.01425 0 0 0 0 0 0 
0.015 0.01575 0 0 0 0 0 0 
0.015 0.01725 0 0 0 0 0 0 
0.015 0.01875 0 0 0 0 0 0 
0.015 0.02025 0 0 0 0 0 0 
0.015 0.02175 0 0 0 0 0 0 
0.015 0.02325 0 0 0 0 0 0 
0.015 0.02475 0 0 0 0 0 0 
0.015 0.02625 0 0 0 0 0 0 
0.015 0.02775 0 0 0 0 0 0 
0.015 0.02925 0 0 0 0 0 0 
0.021 0.02325 0 0 0 0 0 0 
0.021 0.02475 0 0 0 0 0 0 
0.021 0.02625 0 0 0 0 0 0 
0.021 0.02775 7.09506e-17 6.37257e+15 4.23776e-11 -51.3019 4.49945 -13.1804 
0.021 0.02925 0 0 0 0 0 0 
0.0015 0.000375 0 0 0 0 0 0 
0.0015 0.001125 0 0 0 0 0 0 
0.0015 0.001875 0 0 0 0 0 0 
0.0015 0.002625 0 0 0 0 0 0 
0.0045 0.002625 0 0 0 0 0 0 
0.0255 0.022125 0 0 0 0 0 0 
0.0285 0.022125 0 0 0 0 0 0 
0.0105 0.000375 2.05567 6.14999e+21 4.08974e-05 7.37973 7.93916 -0.254241 
0.0075 0.013125 0 0 0 0 0 0 
0.0105 0.013125 0 0 0 0 0 0 
0.0135 0.013125 0 0 0 0 0 0 
0.0165 0.013125 0 0 0 0 0 0 
0.0195 0.022125 0 0 0 0 0 0 
0.0225 0.022125 0 0 0 0 0 0 
0.00375 0.0001875 1.89985 1.31868e+22 8.76923e-05 29.8769 0.603894 -0.471362 
0.00525 0.0001875 1.88719 1.03066e+22 6.85391e-05 45.5173 2.79066 -0.108758 
0.00375 0.0020625 0 0 0 0 0 0 
0.00525 0.0020625 0 0 0 0 0 0 
0.00675 0.0001875 1.65682 7.16787e+21 4.76663e-05 55.0542 0.42361 -1.80691 
0.00825 0.0001875 2.12175 4.93451e+21 3.28145e-05 32.4727 6.20088 -2.31589 
0.00825 0.0005625 2.0377 5.10553e+21 3.39518e-05 25.3135 8.98763 -1.77451 
0.01125 0.0016875 0 0 0 0 0 0 
0.01125 0.0020625 0 0 0 0 0 0 
0.01125 0.0024375 0 0 0 0 0 0 
0.01125 0.0028125 0 0 0 0 0 0 
0.01125 0.0039375 0 0 0 0 0 0 
0.01125 0.0043125 0 0 0 0 0 0 
0.01125 0.0046875 0 0 0 0 0 0 
0.01125 0.0050625 0 0 0 0 0 0 
0.01125 0.0054375 0 0 0 0 0 0 
0.01125 0.0058125 0 0 0 0 0 0 
0.01125 0.0061875 0 0 0 0 0 0 
0.01125 0.0065625 0 0 0 0 0 0 
0.01125 0.0069375 0 0 0 0 0 0 
0.01125 0.0073125 0 0 0 0 0 0 
0.01125 0.0076875 0 0 0 0 0 0 
0.01125 0.0080625 0 0 0 0 0 0 
0.01125 0.0084375 0 0 0 0 0 0 
0.01125 0.0088125 0 0 0 0 0 0 
0.01125 0.0091875 0 0 0 0 0 0 
0.01125 0.0031875 0 0 0 0 0 0 
0.01125 0.0035625 0 0 0 0 0 0 
0.01575 0.0009375 2.02459 2.80075e+21 1.8625e-05 -2.05314 0.0306584 0.127106 
0.01725 0.0009375 1.97179 2.96372e+21 1.97088e-05 -2.41248 3.63554 -0.153522 
0.02175 0.0009375 1.94228 2.80377e+21 1.86451e-05 2.16484 2.46651 1.279 
0.003375 0.00046875 1.89213 1.30888e+22 8.70405e-05 22.8313 1.44784 -8.46286 
0.004125 0.00046875 1.95475 1.30138e+22 8.6542e-05 36.7437 -0.077231 -0.227451 
0.003375 0.00065625 1.93239 1.40237e+22 9.32577e-05 28.2369 -3.22597 -5.22052 
0.004125 0.00065625 1.83657 1.29345e+22 8.60144e-05 31.7277 1.0068 0.512052 
0.003375 0.00084375 1.9719 1.30959e+22 8.70875e-05 26.896 -5.27412 2.09026 
0.004125 0.00084375 1.86382 1.25551e+22 8.34913e-05 32.5694 -3.80214 1.06858 
0.004875 0.00084375 1.92368 1.09991e+22 7.31441e-05 41.4538 -2.29133 3.40099 
0.005625 0.00084375 1.77812 9.30901e+21 6.19049e-05 44.0827 1.53308 -3.47515 
0.004875 0.00103125 1.84047 1.0415e+22 6.92598e-05 38.6802 -1.41195 -1.11077 
0.005625 0.00121875 1.9268 8.99843e+21 5.98396e-05 32.1733 0.398752 -0.804402 
0.025875 0.00309375 2.01851 2.93391e+21 1.95105e-05 1.80234 -1.74588 -5.10391 
0.026625 0.00309375 1.96754 2.91196e+21 1.93645e-05 -1.10611 0.986792 0.27368 
0.025875 0.00328125 2.04592 2.88353e+21 1.91755e-05 -0.837659 -1.29849 1.42202 
0.026625 0.00328125 1.94036 2.97321e+21 1.97718e-05 6.35523 -0.400848 -2.14732 
0.025125 0.00384375 2.05725 2.77661e+21 1.84644e-05 1.63616 3.51345 4.94278 
0.026625 0.00440625 1.96819 3.07199e+21 2.04287e-05 1.92928 -0.934243 1.88827 
0.024375 0.0216562 1.94975 3.07216e+21 2.04298e-05 0.196418 1.54316 -1.11835 
0.025875 0.0216562 1.94639 2.85757e+21 1.90028e-05 -1.26954 0.194119 3.87349 
0.026625 0.0216562 1.89965 2.83969e+21 1.88839e-05 3.9235 -1.41642 3.67933 
0.027375 0.0216562 2.03568 2.87188e+21 1.9098e-05 1.76452 -0.637098 5.1338 
0.028125 0.0216562 2.13721 2.82538e+21 1.87888e-05 2.4356 -2.737 1.21122 
0.028875 0.0216562 1.91184 2.79677e+21 1.85985e-05 -0.54985 5.0653 7.41481 
0.029625 0.0216562 2.00583 2.72882e+21 1.81466e-05 1.82348 2.07571 -3.77969 
0.006375 0.00084375 1.74334 7.67255e+21 5.10225e-05 51.8548 2.42406 -0.953615 
0.007125 0.00084375 1.74863 5.78124e+21 3.84453e-05 49.2566 9.00771 -4.03789 
0.006375 0.00103125 1.75282 7.34209e+21 4.88249e-05 50.0075 4.12342 -1.73715 
0.007125 0.00103125 1.73146 5.30079e+21 3.52503e-05 50.397 13.459 -1.13195 
0.006375 0.00121875 1.82136 6.54685e+21 4.35365e-05 43.4397 7.4973 -0.732131 
0.007125 0.00121875 1.88666 5.44178e+21 3.61878e-05 46.3625 22.1965 -2.62165 
0.006375 0.00140625 1.91182 6.43046e+21 4.27625e-05 37.5792 10.3822 3.05492 
0.007125 0.00140625 1.77766 4.90131e+21 3.25937e-05 33.8451 21.5931 0.214979 
0.006375 0.00196875 2.01278 3.03961e+21 2.02134e-05 -4.86041 7.26398 -2.1748 
0.007125 0.00196875 1.94545 3.77687e+21 2.51162e-05 9.05374 16.9285 1.64481 
0.006375 0.00215625 1.9488 3.59213e+21 2.38877e-05 -5.66082 15.6113 3.06467 
0.007125 0.00215625 1.92903 3.83686e+21 2.55151e-05 6.95598 13.7546 -0.198595 
0.007875 0.00196875 2.02036 4.3115e+21 2.86715e-05 13.3433 17.0339 -0.0501393 
0.008625 0.00196875 2.04075 4.3e+21 2.8595e-05 6.06719 19.6254 5.51958 
0.007875 0.00215625 2.0308 4.23577e+21 2.81678e-05 10.4551 18.3872 -1.01764 
0.008625 0.00215625 2.06872 4.5297e+21 3.01225e-05 1.60726 14.798 1.00884 
0.007875 0.00234375 1.99938 3.92588e+21 2.61071e-05 6.32116 17.948 0.703622 
0.008625 0.00234375 2.00625 4.44257e+21 2.95431e-05 0.488731 18.9944 1.26197 
0.007875 0.00253125 1.96672 4.05089e+21 2.69384e-05 -1.85469 18.1164 -0.845023 
0.008625 0.00253125 1.95776 4.38623e+21 2.91684e-05 0.194772 17.2598 2.56374 
0.007875 0.00271875 1.96851 3.90889e+21 2.59941e-05 -1.25732 14.5119 1.81952 
0.006375 0.00309375 1.88994 3.6148e+21 2.40384e-05 -0.856736 2.21472 -2.36813 
0.006375 0.00328125 1.86846 3.89328e+21 2.58903e-05 -3.90539 0.620949 -2.37564 
0.006375 0.00346875 1.98185 3.59719e+21 2.39213e-05 -0.704792 6.24577 -1.33817 
0.006375 0.00365625 1.89699 3.84221e+21 2.55507e-05 -0.783341 5.53582 3.03361 
0.007875 0.00346875 1.90482 3.94141e+21 2.62104e-05 -1.50147 9.2214 -0.0933353 
0.008625 0.00365625 2.09615 3.95597e+21 2.63072e-05 -1.72385 13.6209 1.41634 
0.006375 0.00384375 2.04811 3.5002e+21 2.32763e-05 0.175469 3.36866 -3.69846 
0.006375 0.00403125 1.91825 3.77958e+21 2.51342e-05 -1.29227 3.36052 -3.28744 
0.006375 0.00421875 2.04193 3.60657e+21 2.39837e-05 -2.71168 5.93567 1.9986 
0.006375 0.00440625 1.8785 3.61684e+21 2.4052e-05 -3.12925 2.06651 1.36765 
0.006375 0.00496875 2.00623 3.7028e+21 2.46237e-05 1.38918 -0.909121 0.226917 
0.006375 0.00534375 1.9616 3.69711e+21 2.45858e-05 -0.817786 5.98806 0.380325 
0.006375 0.00571875 2.00694 3.47694e+21 2.31217e-05 -3.41504 2.89024 0.718432 
0.010125 0.00571875 0 0 0 0 0 0 
0.010125 0.00590625 0 0 0 0 0 0 
0.010125 0.00684375 0 0 0 0 0 0 
0.010125 0.00703125 0 0 0 0 0 0 
0.010125 0.00721875 0 0 0 0 0 0 
0.010125 0.00740625 0 0 0 0 0 0 
0.010125 0.00759375 0 0 0 0 0 0 
0.010125 0.00778125 0 0 0 0 0 0 
0.010125 0.00871875 0 0 0 0 0 0 
0.010125 0.00890625 0 0 0 0 0 0 
0.010125 0.00909375 0 0 0 0 0 0 
0.010125 0.00928125 0 0 0 0 0 0 
0.010125 0.00946875 2.00626 3.3857e+21 2.25149e-05 -0.303137 -3.61683 2.92325 
0.013875 0.00384375 2.02936 2.99744e+21 1.9933e-05 0.978983 0.134878 -2.14223 
0.013875 0.00421875 2.01715 2.97781e+21 1.98024e-05 0.739534 -1.04308 0.595536 
0.015375 0.00384375 2.0454 3.07988e+21 2.04812e-05 -0.741187 4.14149 3.28213 
0.015375 0.00403125 1.9848 2.7738e+21 1.84458e-05 -1.76581 -4.29923 -0.227674 
0.017625 0.00421875 2.07422 3.00464e+21 1.99808e-05 1.36588 0.861225 -0.972529 
0.017625 0.00534375 2.03129 2.87191e+21 1.90982e-05 -0.622835 -1.88651 2.36652 
0.012375 0.00721875 2.00986 2.51635e+21 1.67337e-05 4.42604 10.5763 -12.0358 
0.012375 0.00740625 1.85744 2.88816e+21 1.92063e-05 -8.81662 -5.57831 -4.1176 
0.012375 0.00909375 2.1492 2.68824e+21 1.78768e-05 4.95307 -1.75802 1.76429 
0.012375 0.00928125 1.92525 2.83514e+21 1.88537e-05 3.34139 -11.1173 6.34457 
0.012375 0.00946875 2.00318 2.93395e+21 1.95108e-05 0.561923 1.02305 -5.44997 
0.020625 0.00365625 2.03709 2.93757e+21 1.95348e-05 4.08216 -0.0826905 -0.0772592 
0.019875 0.00421875 2.09853 2.95366e+21 1.96419e-05 1.77729 0.626858 -2.86721 
0.020625 0.00421875 1.89218 2.95366e+21 1.96419e-05 2.52457 1.03412 -1.58554 
0.022125 0.00421875 2.1106 2.97513e+21 1.97846e-05 0.666568 0.10623 4.31965 
0.022875 0.00421875 1.97565 2.9483e+21 1.96062e-05 1.4136 -0.14062 0.479233 
0.018375 0.00459375 2.0361 2.96878e+21 1.97424e-05 -0.104416 3.08859 1.75902 
0.018375 0.0147187 0 0 0 0 0 0 
0.018375 0.0149062 0 0 0 0 0 0 
0.018375 0.0165937 0 0 0 0 0 0 
0.018375 0.0167812 0 0 0 0 0 0 
0.018375 0.0173437 0 0 0 0 0 0 
0.018375 0.0175312 0 0 0 0 0 0 
0.018375 0.0177187 0 0 0 0 0 0 
0.018375 0.0179062 0 0 0 0 0 0 
0.018375 0.0192187 0 0 0 0 0 0 
0.018375 0.0194062 0 0 0 0 0 0 
0.018375 0.0195938 0 0 0 0 0 0 
0.018375 0.0197812 0 0 0 0 0 0 
0.018375 0.0203437 0 0 0 0 0 0 
0.018375 0.0205312 0 0 0 0 0 0 
0.018375 0.0207187 0 0 0 0 0 0 
0.018375 0.0209062 0 0 0 0 0 0 
0.018375 0.0210937 0 0 0 0 0 0 
0.018375 0.0212812 0 0 0 0 0 0 
0.019875 0.0216562 1.97696 2.82181e+21 1.8765e-05 -1.52106 2.26873 -0.133785 
0.020625 0.0216562 1.96502 2.90764e+21 1.93358e-05 1.86178 0.0534721 2.27333 
0.021375 0.0216562 2.06605 2.77174e+21 1.8432e-05 -0.84805 -0.366482 -0.820743 
0.022875 0.0216562 2.0531 2.95056e+21 1.96212e-05 2.27949 -3.45101 -2.06302 
0.023625 0.0216562 2.11708 2.86472e+21 1.90504e-05 3.73466 0.157576 4.20012 
0.02625 0.0009375 2.03999 2.99994e+21 1.99496e-05 4.90305 -2.56302 2.28168 
0.02775 0.0009375 2.03 3.10859e+21 2.06721e-05 -0.326503 6.36155 1.70298 
0.02925 0.0009375 1.9752 2.7585e+21 1.8344e-05 2.39071 4.6251 -0.676411 
0.01875 0.0009375 1.99425 3.01503e+21 2.005e-05 -1.72648 -1.69729 1.23273 
0.02025 0.0009375 1.97054 2.75246e+21 1.83039e-05 0.833113 -1.54218 -1.53822 
0.004875 0.00046875 1.76806 1.0527e+22 7.00043e-05 45.1553 -1.61594 2.81352 
0.005625 0.00046875 1.90104 9.29559e+21 6.18157e-05 48.2986 2.75917 5.33922 
0.004875 0.00065625 1.9058 1.06925e+22 7.11052e-05 45.3935 0.0179834 0.531189 
0.005625 0.00065625 1.79938 9.22661e+21 6.13569e-05 49.6784 -4.53988 -0.497532 
0.027375 0.00346875 1.97806 2.92669e+21 1.94625e-05 -1.47481 -0.0726787 -0.140053 
0.028125 0.00346875 1.95127 2.84186e+21 1.88984e-05 4.86946 2.77904 1.67531 
0.027375 0.00365625 2.01287 2.70231e+21 1.79704e-05 -0.549731 -1.83527 -2.3365 
0.028125 0.00365625 2.0286 2.92828e+21 1.94731e-05 0.209129 0.695311 0.795888 
0.028875 0.00346875 2.0231 2.84839e+21 1.89418e-05 2.343 0.515156 -2.31844 
0.029625 0.00346875 2.15334 2.79618e+21 1.85946e-05 2.29067 2.14433 -0.509242 
0.029625 0.00365625 1.98702 3.00876e+21 2.00083e-05 1.18141 2.10023 0.710424 
0.028125 0.00421875 2.03841 2.9483e+21 1.96062e-05 2.50848 -0.676036 -2.08493 
0.028875 0.00459375 2.01717 2.85298e+21 1.89723e-05 0.486859 -0.107345 -1.08671 
0.007875 0.00159375 1.86963 4.60874e+21 3.06481e-05 18.397 18.3541 2.1891 
0.008625 0.00159375 2.12219 4.53062e+21 3.01287e-05 9.73841 13.3229 -1.76281 
0.007875 0.00178125 1.96815 4.3587e+21 2.89853e-05 16.797 17.2222 -3.92999 
0.008625 0.00178125 1.96026 4.65733e+21 3.09712e-05 11.114 17.0499 -0.949273 
0.009375 0.00384375 1.95504 4.01666e+21 2.67108e-05 -1.58191 10.0525 -3.71867 
0.010125 0.00384375 0 0 0 0 0 0 
0.010125 0.00403125 0 0 0 0 0 0 
0.010125 0.00796875 0 0 0 0 0 0 
0.010125 0.00815625 0 0 0 0 0 0 
0.010125 0.00834375 0 0 0 0 0 0 
0.010125 0.00853125 0 0 0 0 0 0 
0.010875 0.00946875 1.976 3.08474e+21 2.05136e-05 3.04137 -2.3276 0.427835 
0.011625 0.00946875 2.02368 3.1121e+21 2.06955e-05 4.89651 -2.13385 -0.481517 
0.016125 0.00309375 1.92161 2.91562e+21 1.93889e-05 1.17354 0.237261 1.39986 
0.015375 0.00328125 2.04819 3.05944e+21 2.03453e-05 -0.264855 1.83295 -1.44771 
0.016125 0.00328125 1.93921 3.03185e+21 2.01618e-05 4.01508 1.68972 0.3553 
0.015375 0.00346875 1.98689 3.005e+21 1.99832e-05 1.52772 1.52516 0.307758 
0.016125 0.00346875 1.98621 2.99521e+21 1.99181e-05 0.609506 -4.21122 1.64247 
0.016125 0.00365625 1.90626 2.99948e+21 1.99465e-05 2.54257 -2.9542 -0.0657241 
0.016875 0.00403125 2.00305 2.87206e+21 1.90992e-05 0.106167 -1.87961 -6.65976 
0.017625 0.00403125 1.9869 2.93102e+21 1.94913e-05 0.115363 1.22675 -2.20593 
0.012375 0.00609375 1.80027 3.37093e+21 2.24167e-05 -0.839386 -13.7491 -14.1047 
0.012375 0.00628125 2.01371 2.56759e+21 1.70745e-05 -5.28782 9.82585 10.6799 
0.012375 0.00684375 2.09909 3.19996e+21 2.12797e-05 -0.587565 7.6519 -2.93956 
0.012375 0.00703125 2.2234 3.11463e+21 2.07123e-05 -3.51454 15.6863 13.0587 
0.012375 0.00759375 1.77377 2.638e+21 1.75427e-05 0.504797 4.27225 -2.40257 
0.012375 0.00778125 1.81797 2.83624e+21 1.8861e-05 -2.84494 1.31441 4.05337 
0.012375 0.00796875 2.05683 2.7482e+21 1.82755e-05 0.889961 4.21952 -2.83106 
0.012375 0.00815625 2.10723 2.56014e+21 1.70249e-05 4.5636 9.65686 -3.70213 
0.012375 0.00834375 1.93537 2.78746e+21 1.85366e-05 -0.402854 9.32243 -4.68654 
0.012375 0.00853125 2.042 2.88539e+21 1.91878e-05 -1.60722 6.657 -3.2285 
0.018375 0.00384375 2.00304 2.87377e+21 1.91106e-05 -0.812135 0.828501 -2.22662 
0.019125 0.00384375 1.99888 3.15938e+21 2.10099e-05 -1.8924 -3.38812 4.06558 
0.019125 0.00403125 2.03555 2.90013e+21 1.92859e-05 1.75484 1.64805 -0.427018 
0.019875 0.00403125 2.07562 2.95067e+21 1.9622e-05 0.460514 -0.673561 -2.95528 
0.018375 0.00421875 1.95332 2.91611e+21 1.93921e-05 -0.0082261 0.28164 -1.23308 
0.019125 0.00421875 1.96128 2.96708e+21 1.97311e-05 2.93261 -1.48095 3.31549 
0.018375 0.00440625 2.07015 2.87421e+21 1.91135e-05 1.83167 1.2592 -2.14501 
0.021375 0.00384375 2.06126 2.90322e+21 1.93064e-05 2.81817 0.276085 -1.38585 
0.022125 0.00384375 2.03656 3.00333e+21 1.99721e-05 4.37216 -3.77103 1.79263 
0.022125 0.00403125 1.92624 2.80468e+21 1.86511e-05 0.301999 0.590298 -2.26191 
0.019125 0.00515625 1.93412 2.82709e+21 1.88001e-05 -0.678788 -5.19946 -0.488512 
0.022875 0.00478125 1.98686 2.96361e+21 1.9708e-05 -2.30959 -0.00671351 -3.01183 
0.018375 0.0143437 0 0 0 0 0 0 
0.018375 0.0145312 0 0 0 0 0 0 
0.018375 0.0150937 0 0 0 0 0 0 
0.018375 0.0152812 0 0 0 0 0 0 
0.018375 0.0154687 0 0 0 0 0 0 
0.018375 0.0156563 0 0 0 0 0 0 
0.018375 0.0158438 0 0 0 0 0 0 
0.018375 0.0160313 0 0 0 0 0 0 
0.018375 0.0169687 0 0 0 0 0 0 
0.018375 0.0171562 0 0 0 0 0 0 
0.018375 0.0180937 0 0 0 0 0 0 
0.018375 0.0182812 0 0 0 0 0 0 
0.018375 0.0184687 0 0 0 0 0 0 
0.018375 0.0186562 0 0 0 0 0 0 
0.018375 0.0188437 0 0 0 0 0 0 
0.018375 0.0190312 0 0 0 0 0 0 
0.018375 0.0199687 0 0 0 0 0 0 
0.018375 0.0201562 0 0 0 0 0 0 
0.018375 0.0214687 0 0 0 0 0 0 
0.018375 0.0216562 0 0 0 0 0 0 
0.019125 0.0216562 1.83781 2.78962e+21 1.8551e-05 -3.37058 3.28986 5.05697 
0.0039375 0.00117188 1.86844 1.28255e+22 8.52896e-05 25.7646 -1.00715 -5.13074 
0.0043125 0.00117188 1.73095 1.27096e+22 8.45189e-05 28.0935 2.79108 5.08924 
0.0039375 0.00126563 1.98781 1.28055e+22 8.51564e-05 20.2609 -5.23915 2.24988 
0.0043125 0.00126563 1.9316 1.19112e+22 7.92097e-05 19.9662 -0.0525258 6.30607 
0.0039375 0.00135937 1.93086 1.28548e+22 8.54845e-05 15.2181 -4.23719 2.01986 
0.0043125 0.00135937 1.81568 1.10565e+22 7.35255e-05 22.0829 2.42162 0.941684 
0.0039375 0.00145312 1.87899 1.20878e+22 8.03837e-05 17.7408 3.83954 -3.89837 
0.0043125 0.00145312 1.85259 1.30847e+22 8.70133e-05 15.025 -2.75394 2.69291 
0.0046875 0.00135937 1.93824 1.02572e+22 6.82104e-05 27.6148 -5.00379 -4.26197 
0.0050625 0.00135937 2.11248 9.59115e+21 6.37812e-05 17.8069 -8.86813 1.86719 
0.0046875 0.00145312 1.94784 1.06235e+22 7.06465e-05 20.024 -1.67914 4.3499 
0.0050625 0.00145312 1.99832 9.93814e+21 6.60887e-05 19.1532 -2.94832 -5.07573 
0.0249375 0.00829688 1.99617 3.03919e+21 2.02106e-05 3.43637 -2.09081 2.60502 
0.0253125 0.00829688 1.99026 2.71181e+21 1.80335e-05 3.39886 -0.975405 -4.57503 
0.0249375 0.00839063 2.11653 2.64374e+21 1.75809e-05 3.72212 1.85614 -0.157743 
0.0253125 0.00839063 1.90583 2.85956e+21 1.90161e-05 2.13439 5.09912 -2.51494 
0.0256875 0.00867188 2.09222 2.69373e+21 1.79133e-05 5.31523 4.36836 2.21242 
0.0260625 0.00867188 1.9809 2.80336e+21 1.86423e-05 2.21963 -2.71179 -0.731679 
0.0256875 0.00876563 1.94552 2.84052e+21 1.88894e-05 3.35125 7.90504 -4.18544 
0.0260625 0.00876563 2.02313 2.92315e+21 1.94389e-05 -1.7658 -3.27901 -1.50419 
0.0294375 0.00904687 1.94473 3.08248e+21 2.04985e-05 1.98919 -1.21269 -4.27509 
0.0298125 0.00904687 1.9485 2.9924e+21 1.98995e-05 0.135623 -1.46088 -4.82822 
0.0294375 0.00914062 1.91009 2.78837e+21 1.85426e-05 6.27778 2.94136 0.233507 
0.0298125 0.00914062 1.92491 2.81313e+21 1.87073e-05 5.51143 1.25207 4.38065 
0.0294375 0.00942187 1.97045 3.06069e+21 2.03536e-05 2.28318 -1.28423 1.73576 
0.0298125 0.00942187 1.98428 2.83967e+21 1.88838e-05 0.594311 -2.73295 -1.76525 
0.0294375 0.00951562 1.99302 2.95918e+21 1.96785e-05 3.71713 -3.23573 4.71163 
0.0298125 0.00951562 1.95146 2.83548e+21 1.88559e-05 3.47894 2.77888 -2.54183 
0.0249375 0.0107344 1.98061 3.05759e+21 2.0333e-05 0.598029 -0.438225 0.235619 
0.0253125 0.0107344 1.90444 3.01963e+21 2.00805e-05 -0.852417 2.97858 0.202196 
0.0249375 0.0108281 1.94507 2.9684e+21 1.97399e-05 2.43976 4.12733 2.36203 
0.0253125 0.0108281 1.9697 2.83043e+21 1.88224e-05 3.21743 -6.3069 -0.218564 
0.0241875 0.0111094 1.87441 2.88918e+21 1.9213e-05 0.773234 4.13193 2.13349 
0.0245625 0.0111094 1.87341 3.08478e+21 2.05138e-05 0.161226 -2.38989 -1.3646 
0.0241875 0.0112031 1.97573 2.91753e+21 1.94016e-05 1.96315 -0.221686 0.421431 
0.0245625 0.0112031 1.96931 2.83671e+21 1.88641e-05 0.118765 0.499916 2.18196 
0.0294375 0.0107344 1.97723 2.90998e+21 1.93514e-05 -4.25112 5.15852 0.725001 
0.0298125 0.0107344 1.98142 2.90154e+21 1.92953e-05 4.6794 -4.64857 -2.09382 
0.0294375 0.0108281 2.02007 2.99767e+21 1.99345e-05 1.76801 -2.23862 2.43369 
0.0298125 0.0108281 2.02166 2.80953e+21 1.86834e-05 6.26132 1.35299 4.14643 
0.0249375 0.0112969 1.89991 3.06964e+21 2.04131e-05 0.969694 1.45991 1.49498 
0.0253125 0.0112969 1.97622 2.98148e+21 1.98269e-05 2.11878 -2.6452 -0.0497893 
0.0249375 0.0113906 2.00421 2.78604e+21 1.85272e-05 1.85975 -1.22401 -1.23381 
0.0253125 0.0113906 2.00008 2.86156e+21 1.90294e-05 5.41562 3.45133 1.984 
0.0256875 0.0114844 1.86876 2.97617e+21 1.97915e-05 0.64906 0.674949 4.67967 
0.0260625 0.0114844 1.95992 3.01953e+21 2.00799e-05 -2.03178 -0.292633 -0.119022 
0.0256875 0.0115781 1.90414 2.91297e+21 1.93712e-05 -0.948157 5.08215 -3.40167 
0.0260625 0.0115781 2.02071 2.69401e+21 1.79151e-05 -3.23959 -1.13916 -1.08738 
0.0294375 0.0112969 2.0063 2.83321e+21 1.88408e-05 2.17879 2.07489 -3.18877 
0.0298125 0.0112969 1.94017 2.78512e+21 1.85211e-05 4.0694 -0.649182 1.37658 
0.0294375 0.0113906 1.98731 2.94502e+21 1.95844e-05 0.134 -3.38546 1.73594 
0.0298125 0.0113906 2.09485 2.83771e+21 1.88708e-05 -6.19259 -3.1415 -2.16023 
0.0264375 0.0120469 1.96719 2.91987e+21 1.94172e-05 -0.00735776 0.557467 -1.33092 
0.0268125 0.0120469 1.87895 3.00255e+21 1.99669e-05 2.74889 1.5237 2.66933 
0.0264375 0.0121406 1.96497 2.9719e+21 1.97632e-05 1.49213 -2.47719 2.10167 
0.0268125 0.0121406 1.96578 2.91597e+21 1.93912e-05 4.57422 -0.970256 4.52897 
0.0256875 0.0124219 2.05514 3.07955e+21 2.0479e-05 0.597399 -3.33256 -2.19626 
0.0260625 0.0124219 1.98775 2.9447e+21 1.95823e-05 0.35785 1.72475 -3.70388 
0.0256875 0.0125156 1.94613 2.98414e+21 1.98445e-05 -1.6943 -0.858478 2.54999 
0.0260625 0.0125156 2.02156 2.76349e+21 1.83772e-05 -0.830316 -0.361074 -1.23147 
0.0256875 0.0126094 1.9194 2.8722e+21 1.91001e-05 0.630557 -0.800779 -1.75934 
0.0260625 0.0126094 1.94311 2.80398e+21 1.86465e-05 1.26682 -0.0969386 1.53658 
0.0256875 0.0127031 1.9343 2.91158e+21 1.9362e-05 1.19464 -2.63748 3.41684 
0.0260625 0.0127031 2.07295 2.96504e+21 1.97175e-05 -1.19748 -3.20328 -2.46824 
0.0286875 0.0122344 1.99447 3.02684e+21 2.01285e-05 -1.65846 3.79402 2.00556 
0.0286875 0.0123281 1.99613 2.86795e+21 1.90719e-05 -0.123318 -0.882185 -2.00754 
0.0290625 0.0123281 1.97233 2.93038e+21 1.9487e-05 3.68602 -2.84264 2.31889 
0.0279375 0.0126094 1.95348 2.96195e+21 1.9697e-05 5.16813 3.02029 0.0630093 
0.0283125 0.0126094 1.9524 2.91169e+21 1.93627e-05 0.937087 -2.11686 -1.1656 
0.0279375 0.0127031 2.03721 2.93296e+21 1.95042e-05 2.59945 0.78964 1.00456 
0.0290625 0.0124219 1.97004 2.70782e+21 1.8007e-05 1.00472 4.48241 1.98879 
0.0286875 0.0125156 2.03692 2.99499e+21 1.99167e-05 0.359989 0.852519 -0.467956 
0.0290625 0.0125156 2.01738 3.00222e+21 1.99648e-05 -0.378655 4.26034 -1.31176 
0.0256875 0.0127969 1.91693 3.01761e+21 2.00671e-05 -0.158412 -1.80688 0.0635172 
0.0260625 0.0127969 1.94398 2.80535e+21 1.86556e-05 -2.15513 0.202863 -0.29747 
0.0256875 0.0128906 1.93667 2.78495e+21 1.85199e-05 0.769727 0.0167978 -0.684232 
0.0260625 0.0128906 1.97227 2.84114e+21 1.88936e-05 -2.10294 4.81921 1.20423 
0.0256875 0.0129844 1.99789 2.97403e+21 1.97773e-05 3.35352 -3.49454 -2.10779 
0.0260625 0.0129844 2.0026 2.96009e+21 1.96846e-05 0.196995 2.34264 -3.66316 
0.0256875 0.0130781 1.95273 3.03579e+21 2.0188e-05 3.88772 0.301707 0.512745 
0.0260625 0.0130781 2.02921 2.83848e+21 1.88759e-05 1.76287 3.12522 0.877938 
0.0249375 0.0133594 2.05506 2.80244e+21 1.86363e-05 -0.838108 -2.93842 0.597342 
0.0249375 0.0134531 1.95392 2.81993e+21 1.87525e-05 3.30466 0.630634 -1.95869 
0.0253125 0.0134531 1.97608 2.91415e+21 1.93791e-05 -4.53697 -0.561574 1.35514 
0.0256875 0.0131719 1.92809 2.89733e+21 1.92672e-05 -1.19653 0.836152 1.15698 
0.0260625 0.0131719 1.99625 2.99356e+21 1.99072e-05 6.7749 -1.17157 1.23387 
0.0256875 0.0132656 1.92626 3.02018e+21 2.00842e-05 2.30457 -1.3575 0.693068 
0.0260625 0.0132656 2.02069 3.00994e+21 2.00161e-05 -2.1715 2.31433 -0.471887 
0.0260625 0.0133594 1.96388 2.80583e+21 1.86588e-05 1.52305 0.632586 -4.92868 
0.0256875 0.0134531 1.93345 2.9478e+21 1.96029e-05 1.92478 3.92333 -2.05729 
0.0286875 0.0129844 1.9628 2.84852e+21 1.89426e-05 -1.11615 -1.93984 -0.397504 
0.0290625 0.0129844 1.87407 2.98449e+21 1.98469e-05 -2.44383 1.99606 0.301932 
0.0290625 0.0130781 1.97552 2.89733e+21 1.92672e-05 2.12091 3.55244 2.86145 
0.0271875 0.0131719 2.00277 2.97638e+21 1.97929e-05 -0.432466 -1.4579 2.44446 
0.0275625 0.0131719 2.15323 2.90764e+21 1.93358e-05 0.326831 -2.78557 0.0978327 
0.0275625 0.0132656 1.98831 2.93487e+21 1.95169e-05 0.723857 1.75324 0.283882 
0.0271875 0.0133594 2.02113 2.98882e+21 1.98757e-05 0.124703 3.65234 -2.00829 
0.0271875 0.0134531 1.92553 3.10933e+21 2.0677e-05 1.96685 0.956877 -2.23916 
0.0275625 0.0134531 1.98421 2.96463e+21 1.97148e-05 -2.39552 1.55967 -1.66942 
0.0286875 0.0131719 2.00901 2.86983e+21 1.90844e-05 1.66129 5.1668 -2.35876 
0.0290625 0.0131719 2.00423 2.82859e+21 1.88101e-05 -1.19285 1.20281 2.003 
0.0286875 0.0132656 1.98678 3.00653e+21 1.99934e-05 0.0148432 0.178069 -0.799114 
0.0290625 0.0132656 1.99568 2.92463e+21 1.94488e-05 0.51473 -1.72247 3.41684 
0.0294375 0.0133594 2.10023 2.69062e+21 1.78926e-05 2.34307 -0.830746 -1.94774 
0.0298125 0.0133594 1.97601 2.85666e+21 1.89968e-05 2.01524 0.34362 -1.09813 
0.0294375 0.0134531 1.99355 2.99491e+21 1.99162e-05 2.71376 -2.31295 0.575121 
0.0298125 0.0134531 2.08266 2.76945e+21 1.84169e-05 -0.273907 -4.57889 2.06811 
0.0256875 0.0135469 2.07791 2.90401e+21 1.93117e-05 1.7411 1.68848 -0.0875101 
0.0260625 0.0135469 2.00992 2.88062e+21 1.91561e-05 -2.63488 0.313111 0.69126 
0.0256875 0.0136406 1.98946 2.72807e+21 1.81416e-05 1.41975 -2.34133 -3.49984 
0.0260625 0.0136406 2.03118 2.93383e+21 1.951e-05 -2.53152 1.07783 -1.43791 
0.0264375 0.0137344 2.04646 2.80833e+21 1.86754e-05 0.0464925 -0.0615458 5.2247 
0.0268125 0.0137344 2.09579 3.05225e+21 2.02974e-05 0.375762 0.349949 -1.84864 
0.0264375 0.0138281 2.00389 3.08721e+21 2.05299e-05 2.0576 2.98646 2.51742 
0.0268125 0.0138281 1.95805 2.89078e+21 1.92237e-05 1.3414 4.0738 0.16312 
0.0264375 0.0141094 1.91726 2.99038e+21 1.9886e-05 0.0155857 -0.727179 0.925962 
0.0268125 0.0141094 2.02172 2.81711e+21 1.87338e-05 1.51617 2.98541 2.05673 
0.0264375 0.0142031 2.0367 3.03757e+21 2.01999e-05 -3.20151 -1.55602 2.29082 
0.0268125 0.0142031 1.99791 2.86227e+21 1.90341e-05 1.52618 -0.771765 3.3426 
0.0271875 0.0135469 2.08279 2.76031e+21 1.83561e-05 -1.37512 -0.389819 2.79632 
0.0275625 0.0135469 1.96794 2.93409e+21 1.95117e-05 4.24587 0.448205 -2.15042 
0.0271875 0.0136406 1.99711 2.74466e+21 1.8252e-05 -0.955447 4.12435 -2.32597 
0.0271875 0.0137344 2.07385 2.85777e+21 1.90042e-05 1.06513 -3.16076 4.68423 
0.0275625 0.0137344 2.00184 2.87425e+21 1.91138e-05 -0.174115 -0.331864 0.366841 
0.0271875 0.0138281 2.03654 2.70745e+21 1.80045e-05 -2.00222 -0.538388 2.31246 
0.0275625 0.0138281 1.90158 2.76965e+21 1.84182e-05 1.74081 1.13446 1.85687 
0.0283125 0.0139219 1.97353 2.81928e+21 1.87482e-05 5.1367 -1.29206 1.35145 
0.0279375 0.0140156 2.01207 2.87795e+21 1.91383e-05 -3.6818 0.951815 -1.19864 
0.0283125 0.0140156 2.01441 2.91025e+21 1.93531e-05 0.251271 -0.158701 0.402148 
0.0294375 0.0139219 1.999 2.86156e+21 1.90294e-05 0.943787 -0.705764 4.38446 
0.0298125 0.0139219 1.99909 3.04041e+21 2.02187e-05 3.94771 -3.08268 -2.90493 
0.0294375 0.0140156 1.98296 2.93609e+21 1.9525e-05 1.98196 1.74865 -0.906268 
0.0294375 0.0141094 1.99028 3.0353e+21 2.01847e-05 0.274859 2.23842 3.27095 
0.0298125 0.0141094 2.00529 3.01925e+21 2.0078e-05 2.42054 -0.549169 1.16059 
0.0294375 0.0142031 1.99626 3.09494e+21 2.05814e-05 -0.804633 0.298466 -0.0888843 
0.0298125 0.0142031 2.01642 3.01526e+21 2.00515e-05 1.50682 2.33397 0.500857 
0.0241875 0.0144844 2.00495 2.88483e+21 1.91841e-05 0.917848 1.81828 -2.44151 
0.0241875 0.0145781 1.95105 2.99981e+21 1.99487e-05 5.73807 -1.58877 2.91144 
0.0245625 0.0145781 1.99501 2.80727e+21 1.86684e-05 3.05829 0.0624932 -0.112809 
0.0253125 0.0144844 2.01227 2.76606e+21 1.83943e-05 1.72933 1.44124 -0.919465 
0.0249375 0.0145781 1.97647 2.88801e+21 1.92053e-05 4.46743 0.00121574 1.6697 
0.0253125 0.0145781 1.97189 2.8259e+21 1.87923e-05 3.84634 -2.64275 4.80302 
0.0264375 0.0142969 2.1965 2.93533e+21 1.95199e-05 -1.06472 0.201208 3.19129 
0.0264375 0.0143906 2.05484 2.71801e+21 1.80748e-05 2.42874 -1.67502 1.0419 
0.0268125 0.0143906 1.9687 2.91935e+21 1.94137e-05 -0.0400792 -3.1888 -0.10905 
0.0264375 0.0144844 1.95615 3.02547e+21 2.01194e-05 0.83715 1.4146 -1.8016 
0.0268125 0.0144844 1.92818 2.90983e+21 1.93504e-05 3.86377 5.97224 -3.15698 
0.0264375 0.0145781 1.98049 2.99359e+21 1.99074e-05 -0.152186 -0.926503 -0.751452 
0.0268125 0.0145781 2.13137 2.8818e+21 1.9164e-05 1.92458 1.7374 3.97359 
0.0241875 0.0146719 1.99296 2.96521e+21 1.97186e-05 -2.37492 -1.44049 0.758471 
0.0241875 0.0147656 2.11299 2.75323e+21 1.8309e-05 -2.29595 1.2939 -0.793936 
0.0245625 0.0147656 1.9165 2.98624e+21 1.98585e-05 -0.0336339 -2.86045 1.84629 
0.0253125 0.0148594 2.00552 3.05575e+21 2.03207e-05 0.678843 5.27769 -0.767472 
0.0249375 0.0149531 1.96505 2.98815e+21 1.98712e-05 2.76981 0.35215 -0.295266 
0.0253125 0.0149531 1.94198 3.12742e+21 2.07973e-05 0.133315 2.12818 3.05323 
0.0283125 0.0144844 1.98938 3.00984e+21 2.00155e-05 2.86905 -1.40294 -0.219521 
0.0279375 0.0145781 2.00565 3.02154e+21 2.00933e-05 1.22551 0.190557 -0.639689 
0.0283125 0.0145781 2.05701 3.01533e+21 2.0052e-05 1.8331 1.22244 1.76049 
0.0271875 0.0146719 2.05634 2.75848e+21 1.83439e-05 -2.63701 3.37558 -2.5182 
0.0275625 0.0146719 1.89247 2.95287e+21 1.96366e-05 2.32448 -1.65271 -4.45245 
0.0271875 0.0147656 2.02251 2.80535e+21 1.86556e-05 -1.60818 0.399589 -2.38657 
0.0275625 0.0147656 1.90819 2.9985e+21 1.99401e-05 0.774942 1.38847 -0.747076 
0.0279375 0.0146719 1.99421 3.01766e+21 2.00675e-05 -0.796881 -1.83178 1.39046 
0.0283125 0.0146719 1.96569 2.8819e+21 1.91646e-05 2.8079 0.956759 -0.186519 
0.0275625 0.0148594 1.98003 2.9217e+21 1.94293e-05 0.600816 2.23052 2.2191 
0.0271875 0.0149531 1.88509 2.93063e+21 1.94887e-05 -1.8821 -3.52944 -0.370514 
0.0294375 0.0148594 2.01552 2.99787e+21 1.99358e-05 1.12207 -0.594081 0.345729 
0.0298125 0.0148594 1.89435 2.9674e+21 1.97332e-05 -2.11445 1.4174 0.854432 
0.0298125 0.0149531 2.05823 2.7732e+21 1.84418e-05 -1.32289 1.45409 -0.81404 
0.0249375 0.0150469 1.95161 2.85521e+21 1.89871e-05 2.52355 1.03204 0.0417674 
0.0253125 0.0150469 1.97067 2.73486e+21 1.81868e-05 0.76724 0.83837 -0.655802 
0.0249375 0.0151406 1.98008 2.93321e+21 1.95058e-05 -1.76767 -0.051044 1.32391 
0.0249375 0.0153281 1.9545 2.94458e+21 1.95815e-05 1.00187 -0.124338 0.511076 
0.0256875 0.0150469 2.02553 2.81609e+21 1.8727e-05 1.68175 1.47073 1.10917 
0.0260625 0.0150469 2.04915 3.00263e+21 1.99675e-05 1.65088 1.28163 -0.0161332 
0.0260625 0.0151406 1.99083 2.94517e+21 1.95854e-05 0.98467 -0.0377362 0.113009 
0.0268125 0.0150469 1.96934 2.81609e+21 1.8727e-05 1.29075 -0.0762077 1.46095 
0.0264375 0.0151406 2.04645 2.8764e+21 1.9128e-05 -1.11582 0.367509 1.48992 
0.0268125 0.0151406 1.92807 2.94517e+21 1.95854e-05 -1.96068 -1.54561 1.6806 
0.0260625 0.0152344 1.99807 2.9627e+21 1.9702e-05 0.19456 0.816742 2.08721 