ITEM: TIMESTEP
500000
ITEM: NUMBER OF CELLS
48664
ITEM: BOX BOUNDS oo ao pp
0 0.2
0 0.03
-0.1 0.1
ITEM: CELLS xc yc f_out[1] f_out[2] f_out[3] f_out[4] f_out[5] f_out[6] 
0.005 0.01575 0 0 0 0 0 0 
0.005 0.01875 0 0 0 0 0 0 
0.005 0.02175 0 0 0 0 0 0 
0.005 0.02475 0 0 0 0 0 0 
0.005 0.02775 0 0 0 0 0 0 
0.015 0.02475 0 0 0 0 0 0 
0.015 0.02775 0 0 0 0 0 0 
0.005 0.01425 0 0 0 0 0 0 
0.005 0.01725 0 0 0 0 0 0 
0.005 0.02025 0 0 0 0 0 0 
0.005 0.02325 0 0 0 0 0 0 
0.005 0.02625 0 0 0 0 0 0 
0.005 0.02925 0 0 0 0 0 0 
0.015 0.02325 0 0 0 0 0 0 
0.015 0.02625 -3.54753e-17 4.04203e+15 2.68795e-11 -39.774 0.756394 -2.6719 
0.015 0.02925 0 0 0 0 0 0 
0.025 0.02325 0 0 0 0 0 0 
0.025 0.02625 0 0 0 0 0 0 
0.025 0.02925 0 0 0 0 0 0 
0.0025 0.003375 0 0 0 0 0 0 
0.0025 0.004125 0 0 0 0 0 0 
0.0025 0.006375 0 0 0 0 0 0 
0.0025 0.007125 0 0 0 0 0 0 
0.0025 0.009375 0 0 0 0 0 0 
0.0025 0.010125 0 0 0 0 0 0 
0.0025 0.012375 0 0 0 0 0 0 
0.0025 0.013125 0 0 0 0 0 0 
0.0075 0.013125 0 0 0 0 0 0 
0.0125 0.013125 0 0 0 0 0 0 
0.0125 0.015375 0 0 0 0 0 0 
0.0125 0.016125 0 0 0 0 0 0 
0.0125 0.018375 0 0 0 0 0 0 
0.0125 0.019125 0 0 0 0 0 0 
0.0125 0.021375 0 0 0 0 0 0 
0.0125 0.022125 0 0 0 0 0 0 
0.0175 0.022125 0 0 0 0 0 0 
0.0025 0.002625 0 0 0 0 0 0 
0.0025 0.004875 0 0 0 0 0 0 
0.0025 0.005625 0 0 0 0 0 0 
0.0025 0.007875 0 0 0 0 0 0 
0.0025 0.008625 0 0 0 0 0 0 
0.0025 0.010875 0 0 0 0 0 0 
0.0025 0.011625 0 0 0 0 0 0 
0.0125 0.013875 0 0 0 0 0 0 
0.0125 0.014625 0 0 0 0 0 0 
0.0125 0.016875 0 0 0 0 0 0 
0.0125 0.017625 0 0 0 0 0 0 
0.0125 0.019875 0 0 0 0 0 0 
0.0125 0.020625 0 0 0 0 0 0 
0.0125 0.000375 1.9975 2.62029e+21 1.74249e-05 2.52967 0.229241 -1.35507 
0.00125 0.0001875 0 0 0 0 0 0 
0.00125 0.0005625 0 0 0 0 0 0 
0.00625 0.0001875 1.82902 7.92238e+21 5.26838e-05 50.7748 2.60274 -0.194892 
0.00875 0.0001875 1.91854 4.57168e+21 3.04016e-05 21.2274 2.03826 0.0142604 
0.00125 0.0009375 0 0 0 0 0 0 
0.00125 0.0013125 0 0 0 0 0 0 
0.01125 0.0031875 0 0 0 0 0 0 
0.01125 0.0035625 0 0 0 0 0 0 
0.01125 0.0039375 0 0 0 0 0 0 
0.01125 0.0043125 0 0 0 0 0 0 
0.01125 0.0061875 0 0 0 0 0 0 
0.01125 0.0065625 0 0 0 0 0 0 
0.01125 0.0069375 0 0 0 0 0 0 
0.01125 0.0073125 0 0 0 0 0 0 
0.01125 0.0091875 0 0 0 0 0 0 
0.01625 0.0129375 0 0 0 0 0 0 
0.01625 0.0133125 0 0 0 0 0 0 
0.01625 0.0151875 0 0 0 0 0 0 
0.01625 0.0155625 0 0 0 0 0 0 
0.01625 0.0159375 0 0 0 0 0 0 
0.01625 0.0163125 0 0 0 0 0 0 
0.01625 0.0181875 0 0 0 0 0 0 
0.01625 0.0185625 0 0 0 0 0 0 
0.01625 0.0189375 0 0 0 0 0 0 
0.01625 0.0193125 0 0 0 0 0 0 
0.01625 0.0211875 0 0 0 0 0 0 
0.01625 0.0215625 0 0 0 0 0 0 
0.00125 0.0016875 0 0 0 0 0 0 
0.00125 0.0020625 0 0 0 0 0 0 
0.00375 0.0020625 0 0 0 0 0 0 
0.01125 0.0024375 0 0 0 0 0 0 
0.01125 0.0028125 0 0 0 0 0 0 
0.01125 0.0046875 0 0 0 0 0 0 
0.01125 0.0050625 0 0 0 0 0 0 
0.01125 0.0054375 0 0 0 0 0 0 
0.01125 0.0058125 0 0 0 0 0 0 
0.01125 0.0076875 0 0 0 0 0 0 
0.01125 0.0080625 0 0 0 0 0 0 
0.01125 0.0084375 0 0 0 0 0 0 
0.01125 0.0088125 0 0 0 0 0 0 
0.01625 0.0136875 0 0 0 0 0 0 
0.01625 0.0140625 0 0 0 0 0 0 
0.01625 0.0144375 0 0 0 0 0 0 
0.01625 0.0148125 0 0 0 0 0 0 
0.01625 0.0166875 0 0 0 0 0 0 
0.01625 0.0170625 0 0 0 0 0 0 
0.01625 0.0174375 0 0 0 0 0 0 
0.01625 0.0178125 0 0 0 0 0 0 
0.01625 0.0196875 0 0 0 0 0 0 
0.01625 0.0200625 0 0 0 0 0 0 
0.01625 0.0204375 0 0 0 0 0 0 
0.01625 0.0208125 0 0 0 0 0 0 
0.01125 0.0016875 0 0 0 0 0 0 
0.01125 0.0020625 0 0 0 0 0 0 
0.003125 0.00046875 1.71872 1.24217e+22 8.2604e-05 21.463 -5.55945 1.98712 
0.004375 0.00046875 1.86378 1.26758e+22 8.42941e-05 41.1105 -3.30256 -2.32148 
0.003125 0.00065625 1.85563 1.35018e+22 8.9787e-05 22.8308 -2.24488 0.00451155 
0.005625 0.00046875 1.93003 1.00682e+22 6.69536e-05 52.6604 -0.862363 -1.17749 
0.006875 0.00046875 1.71138 5.92503e+21 3.94015e-05 59.9699 5.61232 -1.68549 
0.005625 0.00065625 1.69838 9.18867e+21 6.11046e-05 50.7536 1.8063 3.08283 
0.006875 0.00065625 1.71332 5.92917e+21 3.9429e-05 51.3522 8.33572 1.65516 
0.003125 0.00084375 1.97164 1.28488e+22 8.54443e-05 21.7601 -4.71916 1.22614 
0.003125 0.00103125 1.91785 1.39928e+22 9.30519e-05 27.4195 -4.06535 -4.27132 
0.006875 0.00084375 1.78521 6.09244e+21 4.05147e-05 53.3855 11.8531 1.08054 
0.006875 0.00103125 1.75947 5.30738e+21 3.52941e-05 48.0809 11.0302 0.909285 
0.008125 0.00084375 1.938 5.17495e+21 3.44134e-05 31.2861 10.4096 -1.61024 
0.009375 0.00084375 1.99588 4.60446e+21 3.06197e-05 6.24799 7.66623 -0.0255118 
0.008125 0.00103125 1.92752 4.64889e+21 3.09151e-05 31.2149 15.6753 0.501119 
0.009375 0.00103125 1.99766 4.95973e+21 3.29822e-05 1.84845 13.5468 0.774682 
0.006875 0.00121875 1.75628 5.29319e+21 3.51997e-05 46.8556 15.4249 -0.816055 
0.008125 0.00121875 2.06092 4.44071e+21 2.95307e-05 24.9502 19.0629 0.733184 
0.009375 0.00121875 1.90732 4.69673e+21 3.12332e-05 2.60574 12.3547 0.169211 
0.008125 0.00140625 2.00579 4.32668e+21 2.87724e-05 20.7244 21.806 0.0965398 
0.009375 0.00140625 2.06414 4.75149e+21 3.15974e-05 4.05201 12.5939 -0.333252 
0.005625 0.00309375 0 0 0 0 0 0 
0.005625 0.00328125 0 0 0 0 0 0 
0.005625 0.00346875 0 0 0 0 0 0 
0.005625 0.00365625 0 0 0 0 0 0 
0.005625 0.00384375 0 0 0 0 0 0 
0.005625 0.00403125 0 0 0 0 0 0 
0.005625 0.00421875 0 0 0 0 0 0 
0.005625 0.00440625 0 0 0 0 0 0 
0.005625 0.00609375 0 0 0 0 0 0 
0.005625 0.00628125 0 0 0 0 0 0 
0.005625 0.00646875 0 0 0 0 0 0 
0.005625 0.00665625 0 0 0 0 0 0 
0.005625 0.00684375 0 0 0 0 0 0 
0.005625 0.00703125 0 0 0 0 0 0 
0.005625 0.00721875 0 0 0 0 0 0 
0.005625 0.00740625 0 0 0 0 0 0 
0.005625 0.00909375 0 0 0 0 0 0 
0.005625 0.00928125 0 0 0 0 0 0 
0.005625 0.00946875 0 0 0 0 0 0 
0.005625 0.00965625 0 0 0 0 0 0 
0.005625 0.00984375 0 0 0 0 0 0 
0.005625 0.0100312 0 0 0 0 0 0 
0.005625 0.0102187 0 0 0 0 0 0 
0.005625 0.0104062 0 0 0 0 0 0 
0.005625 0.0120938 0 0 0 0 0 0 
0.005625 0.0122813 0 0 0 0 0 0 
0.005625 0.0124688 0 0 0 0 0 0 
0.005625 0.0126563 0 0 0 0 0 0 
0.013125 0.00309375 1.8886 2.67574e+21 1.77937e-05 0.0801965 0.36548 -0.989252 
0.013125 0.00403125 1.98501 2.56484e+21 1.70562e-05 -3.89649 0.574218 -1.2181 
0.010625 0.00946875 1.99019 2.83167e+21 1.88306e-05 1.07849 2.32647 4.91825 
0.011875 0.00946875 1.99353 2.92196e+21 1.9431e-05 3.98907 -3.14415 -0.512058 
0.018125 0.0128438 0 0 0 0 0 0 
0.018125 0.0130313 0 0 0 0 0 0 
0.018125 0.0132188 0 0 0 0 0 0 
0.018125 0.0134063 0 0 0 0 0 0 
0.018125 0.0150937 0 0 0 0 0 0 
0.018125 0.0152812 0 0 0 0 0 0 
0.018125 0.0154687 0 0 0 0 0 0 
0.018125 0.0156563 0 0 0 0 0 0 
0.018125 0.0158438 0 0 0 0 0 0 
0.018125 0.0160313 0 0 0 0 0 0 
0.018125 0.0162188 0 0 0 0 0 0 
0.018125 0.0164062 0 0 0 0 0 0 
0.018125 0.0180937 0 0 0 0 0 0 
0.018125 0.0182812 0 0 0 0 0 0 
0.018125 0.0184687 0 0 0 0 0 0 
0.018125 0.0186562 0 0 0 0 0 0 
0.018125 0.0188437 0 0 0 0 0 0 
0.018125 0.0190312 0 0 0 0 0 0 
0.018125 0.0192187 0 0 0 0 0 0 
0.018125 0.0194062 0 0 0 0 0 0 
0.018125 0.0210937 0 0 0 0 0 0 
0.018125 0.0212812 0 0 0 0 0 0 
0.018125 0.0214687 0 0 0 0 0 0 
0.018125 0.0216562 0 0 0 0 0 0 
0.019375 0.0216562 1.91134 2.46774e+21 1.64105e-05 -6.83084 1.74489 -2.49833 
0.003125 0.00159375 1.97303 1.37551e+22 9.14716e-05 17.0449 1.75209 -4.71025 
0.003125 0.00178125 0 0 0 0 0 0 
0.004375 0.00178125 0 0 0 0 0 0 
0.005625 0.00159375 1.95894 8.58899e+21 5.71168e-05 17.3674 0.814152 0.720534 
0.006875 0.00159375 1.87458 4.49123e+21 2.98667e-05 29.0268 21.0045 -0.0932209 
0.005625 0.00178125 0 0 0 0 0 0 
0.006875 0.00178125 2.04154 3.58851e+21 2.38636e-05 12.5814 16.0747 0.372848 
0.009375 0.00159375 2.14192 4.72509e+21 3.14219e-05 3.0706 13.5275 -1.6057 
0.009375 0.00178125 1.99512 4.44154e+21 2.95363e-05 6.84153 16.2239 -4.55286 
0.009375 0.00196875 2.02417 4.68737e+21 3.1171e-05 -0.253096 16.884 -2.52624 
0.009375 0.00215625 1.93697 4.27473e+21 2.84269e-05 3.28674 11.0067 1.13752 
0.009375 0.00234375 2.02963 4.24384e+21 2.82215e-05 -1.45269 14.1876 -0.731319 
0.005625 0.00459375 0 0 0 0 0 0 
0.005625 0.00478125 0 0 0 0 0 0 
0.005625 0.00496875 0 0 0 0 0 0 
0.005625 0.00515625 0 0 0 0 0 0 
0.005625 0.00534375 0 0 0 0 0 0 
0.005625 0.00553125 0 0 0 0 0 0 
0.005625 0.00571875 0 0 0 0 0 0 
0.005625 0.00590625 0 0 0 0 0 0 
0.005625 0.00759375 0 0 0 0 0 0 
0.005625 0.00778125 0 0 0 0 0 0 
0.005625 0.00796875 0 0 0 0 0 0 
0.005625 0.00815625 0 0 0 0 0 0 
0.005625 0.00834375 0 0 0 0 0 0 
0.005625 0.00853125 0 0 0 0 0 0 
0.005625 0.00871875 0 0 0 0 0 0 
0.005625 0.00890625 0 0 0 0 0 0 
0.005625 0.0105937 0 0 0 0 0 0 
0.005625 0.0107812 0 0 0 0 0 0 
0.005625 0.0109687 0 0 0 0 0 0 
0.005625 0.0111562 0 0 0 0 0 0 
0.005625 0.0113437 0 0 0 0 0 0 
0.005625 0.0115312 0 0 0 0 0 0 
0.005625 0.0117188 0 0 0 0 0 0 
0.005625 0.0119063 0 0 0 0 0 0 
0.013125 0.00290625 1.96988 2.67035e+21 1.77578e-05 2.00769 2.17635 5.46665 
0.018125 0.0135938 0 0 0 0 0 0 
0.018125 0.0137813 0 0 0 0 0 0 
0.018125 0.0139688 0 0 0 0 0 0 
0.018125 0.0141563 0 0 0 0 0 0 
0.018125 0.0143437 0 0 0 0 0 0 
0.018125 0.0145312 0 0 0 0 0 0 
0.018125 0.0147187 0 0 0 0 0 0 
0.018125 0.0149062 0 0 0 0 0 0 
0.018125 0.0165937 0 0 0 0 0 0 
0.018125 0.0167812 0 0 0 0 0 0 
0.018125 0.0169687 0 0 0 0 0 0 
0.018125 0.0171562 0 0 0 0 0 0 
0.018125 0.0173437 0 0 0 0 0 0 
0.018125 0.0175312 0 0 0 0 0 0 
0.018125 0.0177187 0 0 0 0 0 0 
0.018125 0.0179062 0 0 0 0 0 0 
0.018125 0.0195938 0 0 0 0 0 0 
0.018125 0.0197812 0 0 0 0 0 0 
0.018125 0.0199687 0 0 0 0 0 0 
0.018125 0.0201562 0 0 0 0 0 0 
0.018125 0.0203437 0 0 0 0 0 0 
0.018125 0.0205312 0 0 0 0 0 0 
0.018125 0.0207187 0 0 0 0 0 0 
0.018125 0.0209062 0 0 0 0 0 0 
0.023125 0.00234375 1.97031 2.59601e+21 1.72634e-05 -0.272858 -1.6157 -1.89037 
0.023125 0.00253125 1.97029 2.40103e+21 1.59668e-05 -0.155861 -4.22991 -0.286162 
0.024375 0.00253125 2.0099 2.52711e+21 1.68053e-05 4.88448 4.4575 -2.20664 
0.028125 0.00271875 1.99824 2.63507e+21 1.75232e-05 2.46445 3.00577 1.88793 
0.005625 0.00234375 0 0 0 0 0 0 
0.005625 0.00253125 0 0 0 0 0 0 
0.006875 0.00253125 1.96669 3.41462e+21 2.27072e-05 -2.65104 8.38504 -0.459749 
0.013125 0.00234375 1.98706 2.71452e+21 1.80516e-05 3.07374 0.532407 -1.14735 
0.014375 0.00234375 2.03372 2.59311e+21 1.72442e-05 0.156481 1.27083 -1.00712 
0.013125 0.00253125 1.96367 2.54219e+21 1.69055e-05 1.96496 -2.76185 0.240749 
0.015625 0.00234375 2.03155 2.65395e+21 1.76488e-05 2.99514 -1.7587 0.940387 
0.016875 0.00234375 2.1076 2.66844e+21 1.77451e-05 -3.04812 2.81967 -0.623607 
0.016875 0.00253125 1.94533 2.58882e+21 1.72156e-05 2.361 1.47986 -0.531424 
0.019375 0.00234375 1.99616 2.63077e+21 1.74946e-05 0.495637 -1.87385 1.78379 
0.018125 0.00253125 2.06628 2.56467e+21 1.70551e-05 0.997122 -1.68617 -2.34913 
0.019375 0.00253125 1.95459 2.62369e+21 1.74475e-05 3.80228 -2.58224 1.70033 
0.015625 0.00290625 1.90965 2.59591e+21 1.72628e-05 4.24339 1.90215 0.558292 
0.016875 0.00290625 2.00121 2.51413e+21 1.6719e-05 -2.34371 3.00404 -2.23828 
0.023125 0.00159375 1.85802 2.65872e+21 1.76805e-05 -0.753266 -0.293727 0.390202 
0.024375 0.00159375 2.16956 2.47551e+21 1.64621e-05 7.61612 -0.420663 -3.35143 
0.023125 0.00178125 2.02848 2.56947e+21 1.7087e-05 1.27233 1.89911 3.235 
0.024375 0.00178125 2.07294 2.61141e+21 1.73659e-05 2.51716 1.6305 0.17435 
0.025625 0.00196875 2.04362 2.62484e+21 1.74552e-05 2.456 -3.38331 -0.100104 
0.026875 0.00196875 2.0115 2.40409e+21 1.59872e-05 5.87208 0.583378 -1.92781 
0.025625 0.00215625 2.10792 2.47533e+21 1.64609e-05 -0.0291426 0.584632 3.65676 
0.026875 0.00215625 2.02339 2.50367e+21 1.66494e-05 0.840622 1.08346 0.462386 
0.020625 0.00234375 2.03169 2.52937e+21 1.68203e-05 2.18644 -1.08289 -3.89517 
0.021875 0.00234375 2.0424 2.69741e+21 1.79378e-05 0.252004 1.20044 0.539402 
0.020625 0.00253125 2.03794 2.61296e+21 1.73762e-05 2.97225 -0.687015 2.29399 
0.020625 0.00271875 1.90751 2.79492e+21 1.85862e-05 3.15407 -0.268174 0.612671 
0.024375 0.00271875 1.97135 2.71749e+21 1.80713e-05 2.47669 -1.64195 -3.75523 
0.028125 0.00234375 2.04659 2.70031e+21 1.79571e-05 0.837746 -0.0183584 0.509188 
0.029375 0.00234375 1.99631 2.63367e+21 1.75139e-05 -1.04731 4.47971 -1.34983 
0.028125 0.00253125 2.0258 2.52175e+21 1.67696e-05 3.13228 2.37992 0.00691568 
0.025625 0.00271875 2.03676 2.61259e+21 1.73737e-05 5.69452 -1.64307 1.97957 
0.025625 0.00290625 1.99021 2.62629e+21 1.74648e-05 0.506711 -3.24058 2.0439 
0.0040625 0.000796875 1.87104 1.23392e+22 8.20557e-05 31.6333 -9.26098 4.27522 
0.0046875 0.000796875 1.942 1.07712e+22 7.16287e-05 40.3851 -1.88514 -6.34102 
0.0040625 0.000890625 1.83182 1.32362e+22 8.80208e-05 32.2372 -4.13179 -2.42837 
0.0046875 0.000890625 1.82605 1.08269e+22 7.19986e-05 36.3913 2.49076 2.37194 
0.0040625 0.00117188 1.81816 1.1937e+22 7.9381e-05 29.073 -5.411 -1.28618 
0.0046875 0.00117188 1.9241 1.13575e+22 7.55275e-05 29.525 0.265002 1.24664 
0.0040625 0.00126563 1.976 1.21902e+22 8.10651e-05 28.7951 -3.63408 1.89849 
0.0046875 0.00126563 1.95962 1.04518e+22 6.95047e-05 31.3771 -1.21989 -0.116236 
0.0040625 0.00135937 2.02602 1.18091e+22 7.85306e-05 22.0203 -0.81043 -0.758733 
0.0046875 0.00135937 1.92114 1.085e+22 7.21524e-05 25.4861 2.05859 -1.33388 
0.0040625 0.00145312 1.97902 1.16828e+22 7.76904e-05 17.3715 -0.328679 0.522104 
0.0046875 0.00145312 1.93506 1.07295e+22 7.13509e-05 16.8877 -4.4748 -3.72754 
0.0053125 0.00135937 1.90496 9.99078e+21 6.64387e-05 22.879 -0.856669 -3.82818 
0.0059375 0.00135937 1.93143 7.71289e+21 5.12907e-05 28.4138 1.46034 4.62073 
0.0053125 0.00145312 1.95687 9.47706e+21 6.30225e-05 20.8646 -1.38841 -2.99724 
0.0059375 0.00145312 1.86617 7.9069e+21 5.25809e-05 28.4759 3.64909 1.61344 
0.0078125 0.00323438 2.09382 3.37602e+21 2.24505e-05 0.422475 13.0817 1.1928 
0.0084375 0.00323438 1.95524 3.76233e+21 2.50195e-05 -3.2081 14.7697 -4.62699 
0.0078125 0.00332813 2.04151 3.36253e+21 2.23608e-05 -6.65857 9.61612 -1.94811 
0.0084375 0.00332813 1.97142 3.93384e+21 2.616e-05 -4.4096 13.9732 -1.14128 
0.0065625 0.00417188 2.07859 3.58097e+21 2.38134e-05 -2.16332 8.64709 -2.74274 
0.0071875 0.00417188 1.99483 3.28798e+21 2.18651e-05 -5.86841 8.95087 1.51036 
0.0065625 0.00426563 2.01051 3.52501e+21 2.34413e-05 3.22417 -0.52546 -2.85611 
0.0071875 0.00426563 2.08696 3.46406e+21 2.3036e-05 -0.298808 4.63473 3.81635 
0.0078125 0.00417188 2.01211 3.63305e+21 2.41598e-05 -0.967602 8.3097 -3.4979 
0.0084375 0.00417188 1.97245 3.14474e+21 2.09125e-05 -0.3861 15.4431 0.806554 
0.0078125 0.00426563 1.9957 3.80155e+21 2.52803e-05 -1.77261 7.82718 -3.5884 
0.0084375 0.00426563 2.01749 3.4959e+21 2.32477e-05 -2.42457 10.3189 -1.91557 
0.0078125 0.00435938 2.02376 3.32725e+21 2.21262e-05 1.9648 13.5403 0.331443 
0.0084375 0.00435938 1.88207 3.58272e+21 2.38251e-05 -1.10567 12.8127 -0.134361 
0.0078125 0.00445313 1.91142 3.46459e+21 2.30395e-05 -0.0365905 10.8984 0.95627 
0.0084375 0.00445313 1.94671 3.65978e+21 2.43375e-05 -3.32878 10.7121 -1.00607 
0.0065625 0.00604688 2.00993 3.17112e+21 2.1088e-05 -0.149679 4.86186 -0.0803071 
0.0071875 0.00604688 2.08778 3.3061e+21 2.19855e-05 -1.43023 10.415 -0.140275 
0.0065625 0.00614063 2.01655 3.1701e+21 2.10812e-05 -3.5418 2.0241 0.95603 
0.0071875 0.00614063 2.02101 3.31313e+21 2.20323e-05 2.18103 6.69594 4.04882 
0.0065625 0.00623438 1.93309 3.0965e+21 2.05917e-05 0.0556339 3.476 0.620644 
0.0071875 0.00623438 1.8832 3.28509e+21 2.18458e-05 2.58191 12.2844 0.405788 
0.0065625 0.00632813 1.99194 3.57695e+21 2.37867e-05 3.92444 3.31227 2.13489 
0.0071875 0.00632813 2.03074 3.43816e+21 2.28638e-05 -0.799775 7.29253 3.97216 
0.0078125 0.00623438 1.99312 3.21974e+21 2.14112e-05 -1.64848 8.8179 3.03366 
0.0084375 0.00623438 1.97711 3.11081e+21 2.06869e-05 -4.92495 7.80522 0.941491 
0.0078125 0.00632813 2.03715 3.30081e+21 2.19504e-05 -4.12233 5.47973 -1.73031 
0.0084375 0.00632813 1.99781 3.29222e+21 2.18933e-05 0.00957158 11.5335 -3.24735 
0.0065625 0.00642188 1.97804 3.21757e+21 2.13969e-05 5.78727 3.02075 4.17603 
0.0065625 0.00651563 2.01117 3.49387e+21 2.32342e-05 1.14883 8.38471 3.05777 
0.0071875 0.00651563 1.84865 3.1683e+21 2.10692e-05 2.63064 4.94229 0.808296 
0.0065625 0.00660938 1.88386 3.37092e+21 2.24166e-05 -0.416266 3.60358 1.03343 
0.0071875 0.00660938 2.10778 3.16857e+21 2.1071e-05 2.16674 4.78395 -0.581189 
0.0065625 0.00670313 1.99547 3.15011e+21 2.09482e-05 0.97818 3.87845 1.70306 
0.0071875 0.00670313 2.00166 3.38359e+21 2.25009e-05 -0.485876 4.55328 1.65702 
0.0078125 0.00642188 1.91562 3.01999e+21 2.00829e-05 -0.175466 6.19437 0.328026 
0.0084375 0.00642188 1.97405 3.00307e+21 1.99704e-05 2.37735 9.43354 -1.49715 
0.0078125 0.00651563 1.91775 3.54766e+21 2.3592e-05 1.7049 8.5465 -4.14497 
0.0084375 0.00651563 2.07777 3.29336e+21 2.19009e-05 -0.176995 6.7746 3.11108 
0.0065625 0.00698437 1.98113 3.00474e+21 1.99815e-05 -0.743728 1.09201 -1.78685 
0.0065625 0.00707812 2.02207 3.27103e+21 2.17523e-05 4.92698 1.94457 0.948886 
0.0071875 0.00707812 1.98171 3.22735e+21 2.14619e-05 0.755998 5.18865 -0.687807 
0.0078125 0.00698437 1.97937 3.12678e+21 2.07931e-05 0.051302 5.4854 2.67354 
0.0084375 0.00698437 2.16546 3.20456e+21 2.13103e-05 0.0565766 4.17889 -0.436766 
0.0078125 0.00707812 2.04946 3.05467e+21 2.03135e-05 -3.36627 8.6359 -0.568437 
0.0084375 0.00707812 2.02578 3.3041e+21 2.19723e-05 1.25597 6.69578 -0.806107 
0.0090625 0.00698437 1.98033 3.33679e+21 2.21896e-05 -1.08049 7.41703 -0.489237 
0.0096875 0.00698437 2.0757 2.99518e+21 1.99179e-05 6.92595 -0.996497 1.07865 
0.0090625 0.00707812 2.09911 3.1813e+21 2.11557e-05 -1.55031 6.37743 1.85083 
0.0096875 0.00707812 1.90903 2.98646e+21 1.98599e-05 3.81471 -1.84458 5.12749 
0.0065625 0.00735937 2.07276 3.25587e+21 2.16515e-05 -0.443566 5.73023 0.944503 
0.0071875 0.00735937 1.94782 3.2332e+21 2.15008e-05 -1.06664 7.46601 -3.70222 
0.0065625 0.00745312 1.96398 3.28867e+21 2.18697e-05 0.592932 3.99823 -3.61992 
0.0071875 0.00745312 1.97761 3.39297e+21 2.25633e-05 -0.91742 6.15311 -2.39702 
0.0084375 0.00717187 2.06752 3.36696e+21 2.23903e-05 -1.10283 7.86237 -0.644644 
0.0078125 0.00726562 2.04751 3.40202e+21 2.26235e-05 4.8145 4.41873 -1.71801 
0.0084375 0.00726562 1.977 3.15154e+21 2.09578e-05 -2.13239 6.80607 1.77387 
0.0078125 0.00735937 2.06409 3.09663e+21 2.05926e-05 0.833522 7.06215 -0.571864 
0.0084375 0.00735937 1.8612 3.02282e+21 2.01017e-05 2.88095 6.58098 -2.9803 
0.0078125 0.00745312 2.01538 3.27999e+21 2.1812e-05 0.676423 8.49914 0.00394855 
0.0084375 0.00745312 1.9945 3.19982e+21 2.12788e-05 -5.04281 8.61839 0.575034 
0.0090625 0.00735937 2.0466 3.27749e+21 2.17953e-05 -2.96731 8.17665 1.8195 
0.0096875 0.00735937 1.79454 3.30392e+21 2.19711e-05 -1.95345 2.23947 0.240665 
0.0090625 0.00745312 1.97241 3.25813e+21 2.16665e-05 -0.46681 1.44524 2.81248 
0.0096875 0.00745312 1.91069 3.55627e+21 2.36492e-05 -5.25641 -1.30136 -1.21648 
0.0065625 0.00914062 2.01341 3.20156e+21 2.12904e-05 1.83703 4.25391 0.808843 
0.0065625 0.00923437 2.00456 2.96946e+21 1.97469e-05 3.05153 4.88902 -1.65106 
0.0071875 0.00923437 2.00658 2.96204e+21 1.96976e-05 -1.23907 3.29131 0.928878 
0.0065625 0.00932812 2.01235 2.84602e+21 1.89261e-05 -1.20353 5.92974 2.09508 
0.0078125 0.00914062 2.02389 2.84978e+21 1.8951e-05 2.39236 2.43311 -3.51694 
0.0084375 0.00923437 2.02688 3.24148e+21 2.15558e-05 0.581041 4.85917 -1.82471 
0.0078125 0.00932812 1.95531 3.13319e+21 2.08357e-05 -0.140493 7.65505 0.417039 
0.0065625 0.00942187 1.90243 3.08884e+21 2.05408e-05 -1.81213 5.82848 0.449725 
0.0071875 0.00942187 2.00396 3.19138e+21 2.12227e-05 5.6046 3.13667 0.355959 
0.0065625 0.00951562 1.97681 2.97685e+21 1.9796e-05 -0.864202 4.91317 -1.36094 
0.0071875 0.00951562 2.02359 2.99724e+21 1.99316e-05 0.368779 3.60213 -0.2624 
0.0065625 0.00960937 2.04841 3.11606e+21 2.07218e-05 0.717573 3.27013 1.54882 
0.0065625 0.00970312 2.03464 2.99264e+21 1.9901e-05 2.49357 0.692147 3.36755 
0.0078125 0.00942187 1.9109 3.07895e+21 2.0475e-05 1.06466 6.5425 -3.24004 
0.0084375 0.00942187 2.02399 2.97805e+21 1.9804e-05 0.0455656 3.75071 2.3686 
0.0078125 0.00951562 2.02586 3.02007e+21 2.00835e-05 3.67691 4.24736 -0.217334 
0.0090625 0.00942187 2.04854 3.053e+21 2.03025e-05 5.36751 5.06953 -1.59921 
0.0096875 0.00942187 1.93863 2.94104e+21 1.95579e-05 -4.72456 1.23596 2.67428 
0.0096875 0.00951562 1.92055 2.99158e+21 1.9894e-05 6.75791 4.64261 -3.66077 
0.0084375 0.00960937 2.03406 2.9793e+21 1.98123e-05 6.275 5.1981 -3.58727 
0.0096875 0.00960937 1.97226 2.91146e+21 1.93612e-05 3.92256 1.48902 3.35392 
0.0096875 0.00970312 2.02593 2.98131e+21 1.98257e-05 8.2911 -1.04784 1.55713 
0.0065625 0.00979687 2.06625 2.9838e+21 1.98423e-05 -0.0868547 3.36977 -0.387582 
0.0065625 0.00989062 2.01701 3.06014e+21 2.03499e-05 -0.525423 -1.43586 -4.14471 
0.0065625 0.00998437 2.03628 3.07351e+21 2.04389e-05 -0.85819 6.7098 -1.1378 
0.0065625 0.0100781 2.07238 3.09947e+21 2.06115e-05 3.23187 0.309728 1.47761 
0.0071875 0.0100781 2.03667 3.18571e+21 2.1185e-05 2.66972 4.02666 -1.18135 
0.0078125 0.00979687 2.05286 2.9805e+21 1.98204e-05 2.77916 3.12753 2.2733 
0.0084375 0.00979687 1.97137 3.10804e+21 2.06685e-05 1.98391 6.54942 3.15485 
0.0078125 0.00998437 2.04777 3.09864e+21 2.0606e-05 1.81316 4.57868 0.11562 
0.0096875 0.00998437 1.93062 2.85108e+21 1.89597e-05 3.91678 1.2279 0.0652224 
0.0090625 0.0100781 2.09648 2.99705e+21 1.99304e-05 1.13921 4.71519 -1.36064 
0.0065625 0.0103594 1.98743 3.26191e+21 2.16917e-05 -1.52207 1.95609 -3.96368 
0.0065625 0.0104531 1.9485 2.95115e+21 1.96252e-05 -0.693424 0.320437 2.16224 
0.0084375 0.0101719 1.94533 2.95875e+21 1.96757e-05 -0.274504 5.08514 1.58142 
0.0065625 0.0124219 1.9653 2.92596e+21 1.94576e-05 -0.163512 1.27846 1.49989 
0.0078125 0.0127031 2.01285 3.09433e+21 2.05773e-05 4.58473 -1.15923 -0.053351 
0.0084375 0.0127031 2.03946 2.9566e+21 1.96614e-05 -0.0387182 1.46052 0.0709164 
0.0090625 0.0127031 2.07347 2.79133e+21 1.85623e-05 6.18635 0.0881865 4.18793 
0.0096875 0.0127031 1.91728 2.7546e+21 1.83181e-05 0.0330933 -0.160551 -1.65925 
0.0140625 0.00660938 1.97473 2.66719e+21 1.77368e-05 -2.75616 -3.33834 3.85707 
0.0146875 0.00660938 2.09649 2.89733e+21 1.92672e-05 -0.800366 0.000448036 6.48443 
0.0140625 0.00670313 1.91643 2.52047e+21 1.67611e-05 0.338725 2.61817 0.139732 
0.0146875 0.00670313 1.90619 2.68256e+21 1.7839e-05 -1.06434 -2.84587 4.39648 
0.0190625 0.00623438 1.98535 2.63591e+21 1.75288e-05 1.97684 1.57729 1.76063 
0.0196875 0.00623438 2.02395 2.3135e+21 1.53848e-05 5.89359 2.17116 -0.327172 
0.0190625 0.00632813 1.95128 2.69559e+21 1.79257e-05 0.3609 -0.282332 0.859905 
0.0196875 0.00632813 1.92078 2.58399e+21 1.71835e-05 2.70812 0.53067 0.293823 
0.0190625 0.00642188 2.02716 2.68161e+21 1.78327e-05 5.56973 -0.528043 -2.84958 
0.0196875 0.00642188 2.0045 2.85926e+21 1.90141e-05 3.64339 0.954777 0.286134 
0.0190625 0.00651563 1.97103 2.39707e+21 1.59405e-05 3.78119 -1.89616 0.288715 
0.0196875 0.00651563 1.99504 2.60968e+21 1.73544e-05 0.874451 -0.700442 2.71965 
0.0128125 0.00679687 1.94091 2.4977e+21 1.66097e-05 4.16205 1.99123 0.252966 
0.0134375 0.00679687 1.93845 2.63357e+21 1.75132e-05 -1.94238 0.401671 3.50616 
0.0128125 0.00689062 1.97752 2.64342e+21 1.75787e-05 2.83438 3.87041 3.51701 
0.0134375 0.00689062 1.94257 2.44006e+21 1.62264e-05 -0.742097 -4.84452 4.58634 
0.0140625 0.00923437 1.98234 2.68848e+21 1.78784e-05 -0.184031 -1.87752 0.0426623 
0.0146875 0.00923437 1.99663 2.69143e+21 1.7898e-05 2.5301 1.61134 1.83696 
0.0146875 0.00932812 2.02505 2.60323e+21 1.73115e-05 1.9859 -1.27001 0.444868 
0.0103125 0.00960937 2.07009 2.88319e+21 1.91732e-05 -0.0512222 0.677484 0.961067 
0.0103125 0.00970312 1.97654 2.77416e+21 1.84481e-05 3.19765 2.34872 -1.74999 
0.0140625 0.00942187 1.97265 2.57156e+21 1.71009e-05 -1.10717 -5.20372 0.627743 
0.0146875 0.00951562 2.05898 2.64898e+21 1.76158e-05 3.03838 -3.36104 -3.87047 
0.0184375 0.00904687 2.06996 2.67215e+21 1.77698e-05 3.76691 -6.12672 -0.633449 
0.0184375 0.00914062 2.10314 2.59719e+21 1.72713e-05 3.84405 -0.456764 -0.772989 
0.0178125 0.00923437 1.97481 2.70907e+21 1.80153e-05 5.63295 2.16059 -4.11938 
0.0178125 0.00932812 2.00104 2.7197e+21 1.8086e-05 3.02497 -2.11599 -1.57085 
0.0196875 0.00923437 2.01376 2.54435e+21 1.692e-05 -0.971772 -2.76908 5.51146 
0.0190625 0.00932812 1.99398 2.78959e+21 1.85508e-05 0.320592 2.93084 -1.39639 
0.0196875 0.00932812 1.98921 2.72844e+21 1.81441e-05 2.36248 0.542651 -1.41068 
0.0153125 0.00942187 2.00958 2.70706e+21 1.80019e-05 5.83259 -8.02573 5.233 
0.0159375 0.00942187 2.03552 2.74453e+21 1.82511e-05 2.8014 0.251106 2.46445 
0.0159375 0.00951562 2.03373 2.65184e+21 1.76347e-05 1.45702 -5.07761 1.93329 
0.0153125 0.00960937 1.93295 2.69098e+21 1.7895e-05 -2.33921 2.85182 3.45329 
0.0159375 0.00970312 2.02641 2.64259e+21 1.75732e-05 7.22641 -5.14926 0.390836 
0.0178125 0.00942187 1.90964 2.58597e+21 1.71967e-05 1.1948 1.59504 1.97637 
0.0184375 0.00942187 1.93666 2.70417e+21 1.79827e-05 7.50184 2.20826 -2.35368 
0.0178125 0.00951562 1.98051 2.60331e+21 1.7312e-05 1.88089 -1.74593 1.05376 
0.0184375 0.00951562 2.05738 2.68324e+21 1.78435e-05 3.76475 2.56467 -0.3784 
0.0178125 0.00960937 2.05118 2.7249e+21 1.81206e-05 3.05552 -1.88128 0.474082 
0.0184375 0.00960937 1.97533 2.55813e+21 1.70116e-05 0.372143 1.84313 0.662675 
0.0178125 0.00970312 1.96084 2.54741e+21 1.69403e-05 1.8588 -0.547287 2.95678 
0.0184375 0.00970312 2.02538 2.63139e+21 1.74987e-05 3.20849 -0.0124835 3.09292 
0.0103125 0.00979687 2.00043 2.91951e+21 1.94147e-05 3.0709 3.39644 3.78811 
0.0109375 0.00989062 1.9485 2.78198e+21 1.85002e-05 3.34293 -2.65569 -1.18154 
0.0128125 0.00979687 1.96495 2.74761e+21 1.82716e-05 2.08226 -1.84182 -0.769502 
0.0134375 0.00979687 1.97825 2.7587e+21 1.83453e-05 6.84342 -3.36119 -0.608811 
0.0140625 0.00979687 1.9593 2.58403e+21 1.71838e-05 5.15692 1.57372 -2.18386 
0.0146875 0.00989062 2.04577 2.72706e+21 1.81349e-05 3.10682 -2.45093 -0.936338 
0.0134375 0.00998437 1.9203 2.62528e+21 1.74581e-05 4.7451 -3.80195 1.52309 
0.0128125 0.0100781 2.00534 2.65746e+21 1.76721e-05 5.05835 -3.20371 -4.85417 
0.0134375 0.0100781 1.98712 2.70597e+21 1.79947e-05 0.797747 -3.52403 -4.44695 
0.0140625 0.00998437 1.98832 2.69329e+21 1.79104e-05 -0.565992 -2.38715 -0.117314 
0.0115625 0.0103594 1.99245 2.62202e+21 1.74364e-05 6.6454 0.449221 -2.4452 
0.0121875 0.0103594 1.93735 2.78196e+21 1.85e-05 5.56203 0.438232 2.16063 
0.0115625 0.0104531 1.99366 2.84536e+21 1.89216e-05 2.55445 -1.8179 -2.66923 
0.0134375 0.0101719 2.00472 2.75847e+21 1.83438e-05 1.59377 1.04229 -2.96544 
0.0140625 0.0101719 1.97247 2.73978e+21 1.82195e-05 2.70012 -1.6646 -1.67479 
0.0146875 0.0101719 2.03084 2.54484e+21 1.69232e-05 4.53958 0.734801 -0.691365 
0.0140625 0.0102656 1.93414 2.63802e+21 1.75429e-05 3.81624 -2.84242 3.51566 
0.0128125 0.0103594 2.00159 2.75049e+21 1.82908e-05 5.2241 -1.46049 -1.33987 
0.0134375 0.0103594 1.98453 2.64561e+21 1.75933e-05 2.53939 -2.47317 1.81015 
0.0134375 0.0104531 1.99403 2.7752e+21 1.84551e-05 2.1434 -1.2486 -1.18242 
0.0140625 0.0104531 1.93984 2.5933e+21 1.72455e-05 1.10324 2.17995 0.945804 
0.0165625 0.00998437 1.99875 2.58447e+21 1.71867e-05 1.45369 -1.54518 -0.630035 
0.0171875 0.00998437 2.06281 2.55454e+21 1.69877e-05 6.61879 2.2831 -3.32172 
0.0165625 0.0100781 1.93166 2.58199e+21 1.71702e-05 3.92169 -1.21382 0.229066 
0.0171875 0.0100781 1.93188 2.69249e+21 1.79051e-05 3.428 -2.39598 2.87195 
0.0190625 0.00979687 1.93769 2.43154e+21 1.61697e-05 4.7865 -0.422995 -2.35268 
0.0196875 0.00979687 2.00245 2.62562e+21 1.74603e-05 -1.13565 1.3375 -0.188706 
0.0190625 0.00989062 2.00872 2.62819e+21 1.74775e-05 -0.607836 -0.491669 -6.53055 
0.0196875 0.00989062 1.96437 2.50461e+21 1.66556e-05 2.44034 -1.94604 1.06635 
0.0184375 0.00998437 1.99391 2.51646e+21 1.67344e-05 2.01136 -0.566855 0.728316 
0.0196875 0.00998437 2.00655 2.63616e+21 1.75305e-05 4.70655 0.32831 0.0210973 
0.0153125 0.0101719 1.97883 2.5849e+21 1.71896e-05 4.46536 -2.78471 2.03723 
0.0153125 0.0102656 1.9966 2.57452e+21 1.71206e-05 0.832846 -1.8567 -1.06847 
0.0159375 0.0102656 2.05698 2.4925e+21 1.65751e-05 2.085 -4.74577 -2.35961 
0.0171875 0.0101719 1.99916 2.71841e+21 1.80775e-05 1.76773 2.26801 0.593883 
0.0171875 0.0103594 1.9795 2.7033e+21 1.79769e-05 4.26402 -2.26555 -0.920234 
0.0178125 0.0101719 1.99863 2.6383e+21 1.75447e-05 1.31488 2.53174 -3.31707 
0.0184375 0.0102656 2.00893 2.63273e+21 1.75077e-05 1.16266 -0.740237 -0.461236 
0.0115625 0.0122344 1.94118 2.82184e+21 1.87652e-05 3.3003 -0.749423 1.54605 
0.0128125 0.0120469 1.94321 2.87253e+21 1.91023e-05 3.22126 -1.23753 -2.19219 
0.0146875 0.0120469 2.05112 2.62901e+21 1.74829e-05 3.56362 -2.95592 0.436217 
0.0140625 0.0122344 1.98764 2.75302e+21 1.83076e-05 -0.352104 1.89116 2.60632 
0.0103125 0.0127031 2.02994 2.8051e+21 1.86539e-05 1.23325 -2.13331 -2.17446 
0.0109375 0.0127031 1.99504 2.74083e+21 1.82265e-05 -1.09923 0.527161 -1.05618 
0.0115625 0.0127031 2.15762 3.01169e+21 2.00278e-05 2.5152 -0.28262 2.32372 
0.0121875 0.0127031 2.05314 2.81428e+21 1.8715e-05 6.2902 3.75915 0.401219 
0.0178125 0.0124219 1.95945 2.6721e+21 1.77695e-05 2.92005 -1.45958 -1.43462 
0.0190625 0.0124219 1.99037 2.73551e+21 1.81912e-05 1.19639 0.76532 1.46855 
0.0190625 0.0127031 2.07894 2.57375e+21 1.71154e-05 2.07839 0.491823 0.791344 
0.0190625 0.0129844 2.05378 2.47814e+21 1.64796e-05 -3.58937 0.691047 3.58171 
0.0190625 0.0130781 1.92035 2.48833e+21 1.65474e-05 -2.73249 -3.69505 -2.98084 
0.0190625 0.0131719 2.02841 2.51424e+21 1.67197e-05 0.818461 4.20616 2.27519 
0.0190625 0.0132656 2.05398 2.78786e+21 1.85393e-05 2.48748 -0.686344 2.5519 
0.0190625 0.0133594 1.87753 2.50632e+21 1.66671e-05 2.57796 0.159699 0.947974 
0.0190625 0.0134531 2.0366 2.56263e+21 1.70415e-05 -1.52513 -2.15644 1.96615 
0.0190625 0.0150469 1.98936 2.51338e+21 1.6714e-05 -2.47811 1.51299 -1.19973 
0.0190625 0.0151406 1.97706 2.51507e+21 1.67252e-05 2.44474 1.82815 2.37593 
0.0190625 0.0152344 2.01437 2.54073e+21 1.68959e-05 0.620682 0.107624 -0.905807 
0.0190625 0.0153281 2.0815 2.59676e+21 1.72684e-05 -0.864565 4.65218 2.76305 
0.0190625 0.0155156 1.97808 2.55528e+21 1.69926e-05 2.25154 -1.66208 -1.82407 