ITEM: TIMESTEP
510001
ITEM: NUMBER OF SURFS
38
ITEM: BOX BOUNDS oo ao pp
0 0.35
0 0.03
-0.1 0.1
ITEM: SURFS id v1x v1y v2x v2y 
1 0.00635 0.00159 0.00318 0.00159 
17 0.12609 0.0127 0.06609 0.0127 
33 0.12669 0.00326 0.12717 0.00326 
2 0.00635 0.0127 0.00635 0.00159 
18 0.12609 0.0045 0.12609 0.0127 
34 0.12669 0.00278 0.12669 0.00326 
3 0.01905 0.0127 0.00635 0.0127 
19 0.12669 0.0045 0.12609 0.0045 
35 0.12717 0.00399 0.12669 0.00399 
4 0.01905 0.02159 0.01905 0.0127 
20 0.12669 0.02223 0.12669 0.0045 
36 0.12717 0.00447 0.12717 0.00399 
5 0.0635 0.02159 0.01905 0.02159 
21 0.06609 0.02223 0.12669 0.02223 
37 0.12669 0.00447 0.12717 0.00447 
6 0.0635 0.0035 0.0635 0.02159 
22 0.06609 0.0127 0.06609 0.02223 
38 0.12669 0.00399 0.12669 0.00447 
7 0.06509 0.0035 0.0635 0.0035 
23 0.12717 0.00036 0.12669 0.00036 
8 0.06509 0.0254 0.06509 0.0035 
24 0.12717 0.00084 0.12717 0.00036 
9 0 0.0254 0.06509 0.0254 
25 0.12669 0.00084 0.12717 0.00084 
10 0 0 0 0.0254 
26 0.12669 0.00036 0.12669 0.00084 
11 0.00318 0 0 0 
27 0.12717 0.00157 0.12669 0.00157 
12 0.00318 0.00159 0.00318 0 
28 0.12717 0.00205 0.12717 0.00157 
13 0.00953 0 0.00953 0.00953 
29 0.12669 0.00205 0.12717 0.00205 
14 0.00953 0.00953 0.0127 0.00953 
30 0.12669 0.00157 0.12669 0.00205 
15 0.0127 0.00953 0.0127 0 
31 0.12717 0.00278 0.12669 0.00278 
16 0.0127 0 0.00953 0 
32 0.12717 0.00326 0.12717 0.00278 
