ITEM: TIMESTEP
500000
ITEM: NUMBER OF CELLS
7075
ITEM: BOX BOUNDS oo ao pp
0 0.12
0 0.03
-0.1 0.1
ITEM: CELLS xc yc f_out[1] f_out[2] f_out[3] f_out[4] f_out[5] f_out[6] 
0.003 0.00225 1.85701 2.00912e+21 1.33606e-05 14.55 -1.61331 1.01427 
0.003 0.00375 0 0 0 0 0 0 
0.003 0.00525 0 0 0 0 0 0 
0.003 0.00675 0 0 0 0 0 0 
0.003 0.00825 0 0 0 0 0 0 
0.003 0.00975 0 0 0 0 0 0 
0.003 0.01125 0 0 0 0 0 0 
0.003 0.01275 0 0 0 0 0 0 
0.003 0.01425 0 0 0 0 0 0 
0.003 0.01575 0 0 0 0 0 0 
0.003 0.01725 0 0 0 0 0 0 
0.003 0.01875 0 0 0 0 0 0 
0.003 0.02025 0 0 0 0 0 0 
0.003 0.02175 0 0 0 0 0 0 
0.003 0.02325 0 0 0 0 0 0 
0.027 0.02325 0 0 0 0 0 0 
0.003 0.02475 0 0 0 0 0 0 
0.027 0.02475 0 0 0 0 0 0 
0.003 0.02625 0 0 0 0 0 0 
0.027 0.02625 0 0 0 0 0 0 
0.003 0.02775 0 0 0 0 0 0 
0.027 0.02775 0 0 0 0 0 0 
0.003 0.02925 0 0 0 0 0 0 
0.027 0.02925 0 0 0 0 0 0 
0.009 0.01425 0 0 0 0 0 0 
0.009 0.01575 0 0 0 0 0 0 
0.009 0.01725 0 0 0 0 0 0 
0.009 0.01875 0 0 0 0 0 0 
0.009 0.02025 0 0 0 0 0 0 
0.009 0.02175 0 0 0 0 0 0 
0.009 0.02325 0 0 0 0 0 0 
0.009 0.02475 0 0 0 0 0 0 
0.009 0.02625 0 0 0 0 0 0 
0.009 0.02775 0 0 0 0 0 0 
0.009 0.02925 0 0 0 0 0 0 
0.015 0.01425 0 0 0 0 0 0 
0.015 0.01575 0 0 0 0 0 0 
0.015 0.01725 0 0 0 0 0 0 
0.015 0.01875 0 0 0 0 0 0 
0.015 0.02025 0 0 0 0 0 0 
0.015 0.02175 0 0 0 0 0 0 
0.015 0.02325 0 0 0 0 0 0 
0.015 0.02475 0 0 0 0 0 0 
0.015 0.02625 0 0 0 0 0 0 
0.015 0.02775 0 0 0 0 0 0 
0.015 0.02925 0 0 0 0 0 0 
0.021 0.02325 0 0 0 0 0 0 
0.021 0.02475 0 0 0 0 0 0 
0.021 0.02625 0 0 0 0 0 0 
0.021 0.02775 0 0 0 0 0 0 
0.021 0.02925 0 0 0 0 0 0 
0.0015 0.000375 0 0 0 0 0 0 
0.0045 0.000375 2.05863 2.28762e+21 1.52127e-05 23.8268 2.59447 0.41065 
0.0015 0.001125 0 0 0 0 0 0 
0.0255 0.022125 0 0 0 0 0 0 
0.0285 0.022125 0 0 0 0 0 0 
0.0105 0.001875 2.0704 8.77654e+20 5.8364e-06 8.56287 10.3318 3.79008 
0.0105 0.002625 2.0372 7.80951e+20 5.19332e-06 1.55002 3.11848 -2.07598 
0.0105 0.003375 2.01804 7.15363e+20 4.75716e-06 1.02654 8.33264 2.45955 
0.0105 0.004125 2.0682 6.59066e+20 4.38279e-06 -1.00643 5.56714 -2.99213 
0.0105 0.006375 2.02495 6.20526e+20 4.1265e-06 -2.14631 2.79228 -3.82806 
0.0105 0.007125 2.00497 6.00163e+20 3.99109e-06 -1.50604 3.50772 0.503633 
0.0075 0.013125 0 0 0 0 0 0 
0.0105 0.013125 0 0 0 0 0 0 
0.0135 0.013125 0 0 0 0 0 0 
0.0165 0.013125 0 0 0 0 0 0 
0.0075 0.000375 1.94723 1.11291e+21 7.40082e-06 21.4755 2.81752 -2.07328 
0.0105 0.000375 1.75339 9.28904e+20 6.17721e-06 9.29405 2.92704 -6.1021 
0.0105 0.001125 2.19151 9.03991e+20 6.01154e-06 -0.22212 6.62146 5.09723 
0.0195 0.022125 0 0 0 0 0 0 
0.0225 0.022125 0 0 0 0 0 0 
0.00375 0.0009375 1.85268 2.22238e+21 1.47788e-05 17.1989 -1.67392 0.0863893 
0.00525 0.0009375 2.03008 1.89835e+21 1.2624e-05 23.9838 0.714831 2.75705 
0.00375 0.0013125 2.05787 2.53791e+21 1.68771e-05 15.2866 0.379531 -2.34221 
0.00525 0.0013125 2.0001 1.8367e+21 1.2214e-05 21.1372 1.51004 -2.26984 
0.00675 0.0031875 1.92265 6.83113e+20 4.5427e-06 -3.50982 5.02074 -1.2321 
0.00825 0.0031875 2.00319 6.94151e+20 4.61611e-06 1.0804 12.3704 0.103941 
0.00675 0.0035625 2.02995 6.84759e+20 4.55365e-06 2.10273 4.7954 1.66063 
0.00825 0.0035625 1.98389 6.97328e+20 4.63723e-06 1.34392 5.832 -1.07049 
0.00675 0.0039375 1.92132 6.56098e+20 4.36305e-06 -1.2259 5.80849 -2.11329 
0.00825 0.0039375 1.99565 6.92714e+20 4.60655e-06 -3.13112 9.43766 0.055212 
0.00675 0.0043125 1.9486 6.73499e+20 4.47877e-06 -2.70375 6.29389 -1.65391 
0.00825 0.0043125 1.906 6.67907e+20 4.44158e-06 0.913342 2.34584 3.23605 
0.01875 0.0196875 2.0165 4.81451e+20 3.20165e-06 2.35771 -1.09964 -0.306262 
0.01875 0.0151875 2.02016 4.71958e+20 3.13852e-06 -0.880178 -2.41189 -3.41178 
0.01875 0.0155625 1.98739 5.05432e+20 3.36113e-06 -0.696791 0.684548 -1.29657 
0.01875 0.0174375 2.0499 4.79751e+20 3.19034e-06 2.40395 0.924792 4.79811 
0.01875 0.0178125 2.10876 4.78123e+20 3.17951e-06 1.27977 1.34856 -0.89341 
0.01875 0.0181875 2.00202 4.65153e+20 3.09327e-06 -0.825895 1.68105 0.840798 
0.01875 0.0185625 2.07043 4.85733e+20 3.23013e-06 -2.54041 1.11737 2.98062 
0.024375 0.0180937 2.01624 5.20418e+20 3.46078e-06 0.918361 3.22197 -0.464037 
0.025125 0.0180937 2.00258 5.15414e+20 3.4275e-06 0.46416 -2.79749 -0.0309414 
0.024375 0.0182812 2.0833 4.84745e+20 3.22356e-06 0.0873644 -0.0942493 -0.285794 
0.025125 0.0182812 2.02091 5.10747e+20 3.39647e-06 2.37934 2.89744 0.0697011 
0.00675 0.0054375 1.94019 6.33926e+20 4.21561e-06 -0.462244 2.5805 0.711901 
0.01275 0.0076875 2.00806 4.94804e+20 3.29044e-06 0.556746 -0.984749 0.351688 
0.01275 0.0080625 1.94354 5.0798e+20 3.37807e-06 0.281513 2.84757 2.88672 
0.01875 0.0129375 1.93905 4.73848e+20 3.15109e-06 0.102104 1.46839 0.898998 
0.01875 0.0133125 1.96533 4.76087e+20 3.16598e-06 -3.49642 5.78575 1.64661 
0.01875 0.0136875 1.98738 5.09899e+20 3.39083e-06 -4.46168 -3.22548 -0.411872 
0.01875 0.0140625 2.05555 5.00326e+20 3.32716e-06 1.73827 -2.77373 -0.192952 
0.01875 0.0163125 2.07032 4.65427e+20 3.09509e-06 -1.6749 -0.340722 -2.15812 
0.01875 0.0166875 1.91041 4.41969e+20 2.93909e-06 -1.5277 2.12569 3.90423 
0.01875 0.0170625 1.97347 4.97481e+20 3.30825e-06 -1.84788 1.05555 1.17879 
0.01875 0.0061875 1.95027 5.03923e+20 3.35109e-06 0.221483 -0.998257 -2.74337 
0.01875 0.0211875 1.99936 5.22149e+20 3.47229e-06 -0.232086 2.43367 -2.71805 
0.01875 0.0215625 1.93541 5.11518e+20 3.40159e-06 1.15163 -1.04125 -0.754263 
0.025875 0.0177187 1.96683 4.89275e+20 3.25368e-06 -2.16958 -0.865444 -2.64834 
0.026625 0.0177187 1.95194 4.89914e+20 3.25793e-06 -0.13517 0.0855567 -1.49011 
0.025875 0.0179062 2.04993 4.58238e+20 3.04728e-06 -1.16385 3.76724 -3.31184 
0.026625 0.0179062 1.94787 4.76567e+20 3.16917e-06 3.80785 1.94352 0.870464 
0.028125 0.0210937 2.01868 4.92009e+20 3.27186e-06 -1.73935 -0.357973 3.15255 
0.027375 0.0212812 1.94402 4.86611e+20 3.23596e-06 2.16458 3.40951 -4.97531 
0.028125 0.0212812 1.92661 4.92992e+20 3.2784e-06 -2.53972 3.3471 0.286936 
0.021375 0.0195938 1.92034 4.61516e+20 3.06908e-06 -1.03053 -1.75258 -0.226478 
0.022125 0.0195938 2.01942 5.22166e+20 3.4724e-06 -0.974866 6.98066 0.930019 
0.021375 0.0197812 2.05637 5.01769e+20 3.33676e-06 -0.458044 5.73123 -1.0918 
0.022125 0.0197812 2.05116 4.78311e+20 3.18077e-06 -1.70263 1.78565 3.15008 
0.025125 0.0210937 1.92257 5.12398e+20 3.40744e-06 -1.91129 -0.934316 -0.941426 
0.024375 0.0212812 2.01413 4.92992e+20 3.2784e-06 -0.965717 0.865649 -2.16148 
0.025125 0.0212812 1.91421 4.78633e+20 3.18291e-06 -2.23171 2.40501 0.905116 
0.00675 0.0046875 1.96328 6.21981e+20 4.13617e-06 -3.38598 6.06047 3.64286 
0.00825 0.0046875 1.98514 6.41034e+20 4.26287e-06 -1.00083 9.54831 -2.37036 
0.01275 0.0084375 1.94917 5.24386e+20 3.48717e-06 -3.45996 -0.970432 3.17771 
0.01275 0.0088125 2.02073 5.12306e+20 3.40683e-06 -3.3486 -1.53508 -0.982209 
0.01275 0.0091875 1.95545 5.17957e+20 3.44442e-06 0.533919 0.155684 -0.180233 
0.01875 0.0144375 1.99093 4.99089e+20 3.31894e-06 -0.856701 -1.51304 3.64076 
0.01875 0.0148125 1.94585 4.99188e+20 3.3196e-06 0.028644 3.95483 1.90021 
0.02925 0.0069375 1.92977 4.72692e+20 3.1434e-06 0.563465 -2.28848 -0.189451 
0.00675 0.0009375 1.93212 1.29173e+21 8.58997e-06 31.2413 4.07869 -2.2573 
0.00825 0.0009375 1.95253 9.23523e+20 6.14143e-06 18.7503 1.51998 2.23555 
0.00675 0.0013125 1.88284 1.0326e+21 6.86682e-06 31.2046 11.2728 2.13456 
0.00825 0.0013125 2.056 8.4721e+20 5.63394e-06 14.8413 6.31064 1.25193 
0.01575 0.0069375 2.02853 5.03688e+20 3.34952e-06 1.27785 -0.0194725 0.0617915 
0.01575 0.0073125 2.00755 5.12681e+20 3.40933e-06 0.691107 -2.77091 -1.71073 
0.01875 0.0054375 1.93116 4.77684e+20 3.1766e-06 5.06747 -6.08914 -5.11378 
0.01875 0.0058125 2.04855 4.78994e+20 3.18531e-06 0.383428 -1.1649 -5.13901 
0.02025 0.0058125 1.99617 5.13068e+20 3.4119e-06 -2.29828 -1.80856 -0.962707 
0.02175 0.0054375 2.04203 5.09946e+20 3.39114e-06 -2.08417 -1.58552 -0.24159 
0.02325 0.0054375 2.01767 5.02141e+20 3.33924e-06 1.58518 1.1541 0.107102 
0.02325 0.0058125 2.06909 4.95057e+20 3.29213e-06 -2.23507 -1.30183 1.05114 
0.02325 0.0061875 1.95553 4.69627e+20 3.12302e-06 2.9921 -2.96488 0.0265673 
0.02325 0.0065625 2.0302 4.94529e+20 3.28862e-06 4.48043 -0.170009 -0.923578 
0.02175 0.0069375 1.93811 4.77586e+20 3.17595e-06 -0.62297 -0.0129292 -2.78775 
0.024375 0.0158438 1.97682 5.00032e+20 3.32521e-06 3.8421 -1.68888 1.52437 
0.025125 0.0158438 1.96349 5.17176e+20 3.43922e-06 0.635988 -0.913074 -2.4587 
0.024375 0.0160313 2.02965 4.7018e+20 3.1267e-06 0.087056 -1.76028 -0.173072 
0.025125 0.0160313 1.9541 4.94889e+20 3.29102e-06 2.69118 -4.25454 5.16864 
0.027375 0.0180937 1.97056 5.18542e+20 3.4483e-06 1.74645 2.01503 0.849308 
0.027375 0.0182812 1.95868 5.05794e+20 3.36353e-06 -2.23484 0.203275 -0.896195 
0.028125 0.0182812 2.01368 5.16938e+20 3.43764e-06 3.94923 5.52788 -1.91548 
0.027375 0.0207187 1.97973 5.07469e+20 3.37467e-06 0.964922 -1.04899 0.55632 
0.028125 0.0207187 1.93892 5.20033e+20 3.45822e-06 1.18155 -0.211246 0.0561608 
0.027375 0.0209062 2.06917 4.63399e+20 3.0816e-06 0.123245 0.242825 0.87492 
0.010875 0.0120938 2.11357 4.94118e+20 3.28588e-06 -4.39949 1.30975 -2.29785 
0.011625 0.0120938 2.05561 5.67113e+20 3.7713e-06 5.01339 2.54957 -3.78555 
0.010875 0.0122813 1.91706 5.262e+20 3.49923e-06 7.06393 1.60789 4.90852 
0.011625 0.0122813 2.07002 5.33573e+20 3.54826e-06 6.61609 2.01496 0.748895 
0.019875 0.0199687 2.02425 4.82321e+20 3.20744e-06 -0.295595 -0.438405 -1.4015 
0.020625 0.0199687 1.99319 4.84588e+20 3.22251e-06 1.21992 -0.780905 -1.83418 
0.019875 0.0201562 2.05 4.61551e+20 3.06931e-06 5.20372 2.23148 -0.00240121 
0.021375 0.0199687 1.92486 4.78354e+20 3.18105e-06 2.9822 0.172028 0.482201 
0.022125 0.0199687 2.08878 4.67585e+20 3.10944e-06 -0.276532 2.31862 -1.1118 
0.021375 0.0201562 2.03226 4.92433e+20 3.27468e-06 0.0485665 0.364898 1.09506 
0.022125 0.0201562 1.98198 4.73342e+20 3.14773e-06 -3.10444 0.0507133 1.49224 
0.021375 0.0203437 1.90277 5.0069e+20 3.32959e-06 1.54477 1.25425 -1.23728 
0.022125 0.0203437 1.86263 5.02915e+20 3.34439e-06 -1.68473 -0.226144 -1.34536 
0.021375 0.0205312 1.98544 4.87298e+20 3.24053e-06 -0.39535 1.87772 -1.52008 
0.022125 0.0205312 1.9696 5.02733e+20 3.34317e-06 -2.71064 1.13366 1.31136 
0.025875 0.0199687 2.05833 4.68152e+20 3.11321e-06 1.04025 2.05645 0.741759 
0.026625 0.0199687 2.22791 4.93657e+20 3.28282e-06 1.46409 4.81399 4.19002 
0.025875 0.0201562 2.03521 4.69973e+20 3.12532e-06 1.45245 1.81745 0.470164 
0.026625 0.0201562 1.89138 4.6885e+20 3.11786e-06 2.29587 -2.51233 -2.40013 
0.025875 0.0210937 2.10204 4.79669e+20 3.1898e-06 0.0249047 -1.40758 0.27763 
0.025875 0.0212812 1.97919 5.02033e+20 3.33852e-06 -0.775907 0.541595 -1.03219 
0.021375 0.0124688 2.06345 5.01042e+20 3.33193e-06 1.94693 4.26486 -3.3501 
0.022125 0.0124688 1.89428 5.39164e+20 3.58544e-06 3.9399 3.23287 -0.324636 
0.021375 0.0126563 1.9935 4.83782e+20 3.21715e-06 0.177089 -1.1182 -0.463723 
0.022125 0.0126563 2.06854 4.76628e+20 3.16958e-06 2.20928 -3.06576 -2.81318 
0.019875 0.0192187 2.07943 5.03499e+20 3.34827e-06 -0.823937 0.378097 1.70167 
0.020625 0.0192187 1.95635 5.12332e+20 3.40701e-06 -1.38267 -3.8004 2.40903 
0.019875 0.0194062 1.90242 4.77639e+20 3.1763e-06 0.726087 2.09193 2.27504 
0.020625 0.0194062 1.98032 4.84054e+20 3.21896e-06 0.589342 -0.0743805 -0.967518 
0.021375 0.0188437 2.04325 4.91296e+20 3.26712e-06 0.831084 -1.95779 0.756921 
0.022125 0.0188437 1.96365 4.76281e+20 3.16727e-06 -0.234807 0.827928 -1.88152 
0.021375 0.0190312 1.95319 4.85267e+20 3.22702e-06 -3.88383 -2.49267 4.18153 
0.022125 0.0190312 1.9452 4.52559e+20 3.00952e-06 -0.575269 -1.5853 5.3427 
0.022875 0.0192187 1.95004 5.00555e+20 3.32869e-06 3.4853 3.76585 -1.86941 
0.023625 0.0192187 1.91123 4.64043e+20 3.08589e-06 -1.91279 -0.0714013 -2.49926 
0.022875 0.0194062 2.04423 4.91053e+20 3.2655e-06 0.910675 -2.47742 -0.608763 
0.023625 0.0194062 1.93715 4.74723e+20 3.15691e-06 1.11631 0.24132 -0.298041 
0.00975 0.0091875 1.95138 5.95301e+20 3.95875e-06 2.88136 2.15797 -1.70632 
0.01125 0.0091875 0 0 0 0 0 0 
0.02475 0.0046875 2.14825 4.92546e+20 3.27543e-06 0.436481 -5.65305 1.62527 
0.02625 0.0046875 2.04783 4.90131e+20 3.25937e-06 3.20818 -2.28895 -2.5949 
0.02475 0.0050625 2.04161 4.78976e+20 3.18519e-06 0.0124724 -2.9885 2.33166 
0.02625 0.0050625 1.83868 4.54943e+20 3.02537e-06 3.20868 -0.144917 -0.988761 
0.02625 0.0069375 1.94971 4.89413e+20 3.2546e-06 -0.154552 1.17311 3.46105 
0.01575 0.0046875 1.94904 4.76248e+20 3.16705e-06 3.96312 1.0249 -0.0142578 
0.01725 0.0046875 2.02748 5.05825e+20 3.36374e-06 -0.769441 1.27871 1.53929 
0.01575 0.0050625 1.9654 4.96301e+20 3.3004e-06 0.809925 0.156221 1.32096 
0.01575 0.0061875 1.95857 4.91576e+20 3.26898e-06 0.905803 -1.32962 -0.192019 
0.01725 0.0061875 2.00792 5.13068e+20 3.4119e-06 1.39474 1.1564 -3.63715 
0.02175 0.0046875 1.9814 4.96167e+20 3.29951e-06 3.79501 0.649034 4.4926 
0.02325 0.0046875 1.96981 4.6478e+20 3.09078e-06 0.434529 0.925276 -2.84814 
0.02325 0.0050625 2.03856 4.75063e+20 3.15917e-06 1.03277 2.44826 -2.34349 
0.025875 0.0147187 1.87542 4.92115e+20 3.27257e-06 1.60605 -3.05863 -0.889916 
0.026625 0.0147187 1.9077 4.83657e+20 3.21632e-06 0.772216 -6.35343 1.61068 
0.025875 0.0149062 2.01356 5.17814e+20 3.44346e-06 1.62193 0.317002 -3.06145 
0.026625 0.0149062 1.97747 5.15536e+20 3.42831e-06 0.441765 -3.78167 8.05071 
0.024375 0.0165937 1.93441 4.95165e+20 3.29285e-06 0.317603 -2.31489 0.377969 
0.025125 0.0165937 2.05259 4.73339e+20 3.14771e-06 1.89923 2.96871 2.51618 
0.024375 0.0167812 1.91261 5.11214e+20 3.39957e-06 0.511512 0.379473 -3.42089 
0.025125 0.0167812 1.98236 4.68051e+20 3.11254e-06 0.723499 -0.709831 4.06651 
0.028875 0.0173437 1.95872 4.82235e+20 3.20686e-06 -1.28458 -2.83934 -1.88106 
0.029625 0.0173437 2.04847 4.76362e+20 3.16781e-06 2.23658 -2.24012 1.97944 
0.028875 0.0175312 2.04668 4.87407e+20 3.24126e-06 2.42814 -1.66119 1.49652 
0.029625 0.0175312 2.06236 4.93863e+20 3.28419e-06 -3.98241 0.833939 -2.67966 
0.025875 0.0180937 2.06965 4.60995e+20 3.06562e-06 2.4485 0.744183 -4.26181 
0.026625 0.0180937 2.05996 4.8539e+20 3.22784e-06 3.60987 0.0597291 -0.812559 
0.025875 0.0182812 2.07938 4.82269e+20 3.20709e-06 4.24965 -2.89389 0.457038 
0.026625 0.0182812 1.89229 4.89698e+20 3.25649e-06 0.592139 -1.90643 2.68036 
0.028875 0.0184687 2.11887 4.99434e+20 3.32123e-06 -0.408562 2.10107 -0.0525145 
0.029625 0.0184687 2.03532 4.73696e+20 3.15008e-06 -0.328907 -0.960716 -6.45138 
0.028875 0.0186562 2.08458 4.69542e+20 3.12245e-06 -2.29878 -0.0397784 -3.33919 
0.029625 0.0186562 2.0555 4.95021e+20 3.29189e-06 -0.80843 0.299725 1.91099 
0.025875 0.0188437 2.00562 4.83488e+20 3.2152e-06 1.84655 5.72174 3.37966 
0.026625 0.0188437 2.00268 4.75681e+20 3.16328e-06 -3.78944 -5.53155 -0.176324 
0.026625 0.0190312 1.93039 4.95376e+20 3.29425e-06 2.48619 0.638746 2.93672 
0.028875 0.0192187 1.96211 5.01143e+20 3.3326e-06 3.53605 -2.25536 1.4493 
0.029625 0.0192187 1.89516 4.7641e+20 3.16813e-06 3.07229 4.38149 0.466308 
0.028875 0.0194062 2.06723 4.80555e+20 3.19569e-06 4.29622 6.21396 -1.50185 
0.029625 0.0194062 1.96589 4.85804e+20 3.2306e-06 -1.70988 -0.918427 -0.321406 
0.028875 0.0195938 1.9747 4.63249e+20 3.08061e-06 1.76475 2.151 -2.80189 
0.029625 0.0195938 2.0388 5.07725e+20 3.37637e-06 0.761056 -0.924544 -2.94297 
0.028875 0.0197812 1.88713 5.13211e+20 3.41286e-06 -1.79479 -2.76446 0.0988613 
0.029625 0.0197812 1.95293 5.28087e+20 3.51178e-06 -1.89976 -1.18079 -0.683224 
0.027375 0.0199687 2.01848 5.02158e+20 3.33935e-06 4.32801 -1.49232 -0.909772 
0.028125 0.0199687 1.97644 4.99324e+20 3.32051e-06 1.32141 -2.58686 0.256098 
0.027375 0.0201562 2.02066 4.86257e+20 3.23361e-06 -2.02597 1.47224 0.0235732 
0.028125 0.0201562 2.03385 4.92433e+20 3.27468e-06 -1.91622 3.22299 0.518723 
0.028875 0.0199687 1.96632 5.04425e+20 3.35443e-06 -0.887345 -0.359835 -2.21322 
0.028875 0.0201562 1.96439 5.16016e+20 3.43151e-06 3.56666 -2.61973 -2.02637 
0.029625 0.0201562 1.93904 4.79519e+20 3.1888e-06 1.6009 -2.72763 -2.87089 
0.024375 0.0203437 1.96373 4.9624e+20 3.29999e-06 -2.15345 -0.758511 0.869133 
0.025125 0.0205312 1.88536 4.64697e+20 3.09023e-06 3.28883 -3.32686 6.4507 
0.025875 0.0207187 2.00779 4.85073e+20 3.22573e-06 2.2973 -1.29576 -1.00765 
0.026625 0.0207187 1.92043 5.13478e+20 3.41463e-06 1.95169 -0.588964 -3.44407 
0.025875 0.0209062 2.0487 4.78557e+20 3.1824e-06 0.0797512 2.05385 -1.08643 
0.026625 0.0209062 1.96393 4.7964e+20 3.1896e-06 -1.51309 -1.59285 2.10305 
0.021375 0.0150937 2.05669 5.1513e+20 3.42562e-06 -3.52376 -0.60455 0.462379 
0.022125 0.0150937 2.05491 5.06882e+20 3.37077e-06 -3.04281 -1.95084 0.285318 
0.021375 0.0152812 2.03977 4.56966e+20 3.03882e-06 -2.44516 0.801729 1.20551 
0.022125 0.0152812 2.00168 4.9696e+20 3.30478e-06 -2.64544 -0.554511 2.62435 
0.022875 0.0158438 2.01431 4.7003e+20 3.1257e-06 3.10852 -0.434895 2.19839 
0.023625 0.0158438 2.03921 4.83602e+20 3.21595e-06 -4.35832 1.60882 1.28231 
0.022875 0.0160313 2.00334 5.11127e+20 3.39899e-06 0.825202 -3.26722 -0.766631 
0.023625 0.0160313 2.03923 4.41235e+20 2.93421e-06 0.67878 0.231847 -0.698645 
0.022875 0.0195938 1.8883 5.01949e+20 3.33796e-06 2.27554 -2.67607 -1.12508 
0.023625 0.0195938 2.01111 4.67292e+20 3.10749e-06 -2.88544 -1.18059 0.00250869 
0.022875 0.0197812 1.9786 4.96619e+20 3.30252e-06 1.41839 -0.830477 -0.948557 
0.023625 0.0197812 1.88282 4.72017e+20 3.13891e-06 0.372338 0.00367646 0.220954 
0.021375 0.0207187 1.93187 4.67047e+20 3.10586e-06 1.0824 2.43401 3.13265 
0.022125 0.0207187 2.00774 5.04738e+20 3.35651e-06 0.991348 -0.40925 -3.06147 
0.021375 0.0209062 2.12353 4.74768e+20 3.1572e-06 -3.02374 -0.349102 -2.70407 
0.022125 0.0209062 2.03765 5.28362e+20 3.5136e-06 0.257944 2.88194 4.82736 
0.025875 0.0128438 1.84175 4.80244e+20 3.19362e-06 -2.82933 2.0671 3.26851 
0.026625 0.0128438 1.99455 4.64383e+20 3.08815e-06 -0.423311 1.13065 1.78665 
0.026625 0.0130313 2.0235 4.76808e+20 3.17078e-06 5.35221 -2.0761 -2.02679 
0.024375 0.0132188 2.05348 4.88025e+20 3.24537e-06 6.01696 0.642544 -1.11132 
0.025125 0.0132188 1.8815 4.82032e+20 3.20551e-06 3.55726 -0.777507 3.60502 
0.024375 0.0134063 1.99574 4.73602e+20 3.14945e-06 -0.912333 -0.739412 -0.687654 
0.025125 0.0134063 1.9614 4.88797e+20 3.2505e-06 3.50137 -2.25678 3.17458 
0.027375 0.0143437 1.97241 4.93934e+20 3.28466e-06 -0.552356 3.13052 0.524809 
0.028125 0.0143437 2.01361 5.07348e+20 3.37386e-06 0.371455 1.77246 -0.186017 
0.027375 0.0145312 2.12508 5.07811e+20 3.37694e-06 -4.89418 1.04982 -0.218999 
0.028125 0.0145312 2.08699 4.90676e+20 3.263e-06 3.40175 -1.48958 5.06723 
0.024375 0.0195938 2.0466 4.63827e+20 3.08445e-06 1.86786 -2.634 2.94715 
0.025125 0.0195938 2.02953 4.86354e+20 3.23425e-06 -1.52935 -0.67568 -0.826509 
0.025125 0.0197812 2.00531 4.33112e+20 2.88019e-06 2.7674 -3.3428 -2.76535 
0.019875 0.0184687 2.05725 4.89629e+20 3.25603e-06 -0.579347 -5.20845 2.04645 
0.020625 0.0184687 2.02329 4.97595e+20 3.30901e-06 -1.61981 0.157352 0.520195 
0.019875 0.0186562 2.08388 4.88348e+20 3.24751e-06 4.50585 0.558662 2.96544 
0.020625 0.0186562 1.97547 4.91988e+20 3.27172e-06 0.314835 -3.34487 4.45849 
0.019875 0.0188437 2.05847 4.54659e+20 3.02348e-06 2.22091 -3.33558 0.474638 
0.020625 0.0188437 2.13799 4.76882e+20 3.17126e-06 1.41636 3.07158 -3.22998 
0.019875 0.0190312 1.90163 4.8824e+20 3.2468e-06 -1.11724 2.70448 1.66301 
0.020625 0.0190312 1.88703 4.82888e+20 3.2112e-06 -2.55781 -2.96618 -0.321668 
0.022875 0.0188437 1.96771 5.00906e+20 3.33103e-06 0.110977 0.402009 1.51807 
0.023625 0.0188437 2.01632 5.00906e+20 3.33103e-06 1.87333 -3.54132 -1.32349 
0.022875 0.0190312 2.06138 5.12028e+20 3.40498e-06 -2.79418 0.126771 -0.284205 
0.023625 0.0190312 1.96062 5.06081e+20 3.36544e-06 0.0398153 1.75021 -0.357997 
0.022875 0.0210937 2.01051 5.0113e+20 3.33252e-06 -0.422972 -0.268226 0.417047 
0.023625 0.0212812 2.08087 5.0097e+20 3.33145e-06 1.11448 1.74468 -0.571637 
0.02175 0.0039375 2.12427 4.69953e+20 3.12519e-06 2.25967 -1.13384 -3.00903 
0.02325 0.0039375 2.05233 4.95104e+20 3.29244e-06 2.48075 -3.73287 -1.86162 
0.02325 0.0043125 2.05152 5.01915e+20 3.33773e-06 -0.194461 0.715407 -3.81106 
0.02775 0.0054375 1.93358 5.03702e+20 3.34962e-06 2.94148 -1.55669 -0.610034 
0.02925 0.0054375 1.911 5.13589e+20 3.41537e-06 1.76706 0.150264 2.18116 
0.02775 0.0058125 1.97821 4.66337e+20 3.10114e-06 0.231064 1.03178 0.591893 
0.01275 0.0054375 1.92853 4.93685e+20 3.28301e-06 1.63568 2.94032 4.51004 
0.01425 0.0054375 2.04718 4.91734e+20 3.27003e-06 1.065 -0.857062 -0.322938 
0.01275 0.0058125 2.03104 4.91041e+20 3.26543e-06 -2.19995 1.33909 -0.17989 
0.01425 0.0058125 2.00479 4.97978e+20 3.31155e-06 2.43672 -1.70863 -0.518937 
0.01575 0.0054375 1.94801 4.92775e+20 3.27695e-06 0.618411 -2.40842 -0.657475 
0.01725 0.0054375 2.01878 4.60513e+20 3.06241e-06 -0.536146 1.34141 1.76837 
0.01575 0.0058125 1.95139 5.09174e+20 3.38601e-06 1.44033 1.63679 -0.936479 
0.01725 0.0058125 1.98116 4.88729e+20 3.25005e-06 2.93678 0.919592 3.61844 
0.025875 0.0143437 2.06693 4.96301e+20 3.3004e-06 2.72542 0.0912399 2.32179 
0.026625 0.0143437 2.07143 4.9788e+20 3.3109e-06 1.40212 -1.26112 -0.506367 
0.025875 0.0145312 2.10468 4.71984e+20 3.13869e-06 -1.10832 3.23277 1.26568 
0.026625 0.0145312 2.00437 4.78994e+20 3.18531e-06 0.232534 -0.0750711 -0.632101 
0.024375 0.0154687 2.00611 5.05569e+20 3.36203e-06 3.51226 1.36592 2.07833 
0.025125 0.0154687 1.98985 4.99716e+20 3.32311e-06 0.528878 2.05943 -1.20599 
0.024375 0.0156563 1.99026 4.56141e+20 3.03334e-06 0.718782 -3.23603 2.29842 
0.025125 0.0156563 1.95159 4.74213e+20 3.15352e-06 -2.76439 -0.396177 -0.810971 
0.028875 0.0154687 1.97117 5.12154e+20 3.40582e-06 1.08501 2.10188 3.94519 
0.029625 0.0154687 2.00022 4.56549e+20 3.03605e-06 2.94793 0.454454 -0.928194 
0.028875 0.0156563 2.01752 4.77105e+20 3.17275e-06 4.84817 -4.1077 2.10078 
0.029625 0.0156563 1.96888 4.81442e+20 3.20159e-06 -0.15699 3.28451 -3.4478 
0.025875 0.0162188 1.98479 4.99635e+20 3.32258e-06 0.393851 3.11082 4.68836 
0.026625 0.0162188 2.05969 4.75212e+20 3.16016e-06 1.74657 -1.47117 -1.47155 
0.025875 0.0164062 1.95433 4.98064e+20 3.31213e-06 4.6224 1.62575 -1.75329 
0.026625 0.0164062 1.87519 4.93925e+20 3.2846e-06 0.446003 -1.07402 3.42715 
0.024375 0.0169687 1.93187 4.88224e+20 3.24669e-06 0.641071 -0.165215 -0.533307 
0.025125 0.0169687 2.02133 5.03564e+20 3.3487e-06 -1.9287 2.17418 -2.41361 
0.024375 0.0171562 2.12123 4.51223e+20 3.00063e-06 2.89679 2.0951 -1.86239 
0.025125 0.0171562 2.05265 4.86186e+20 3.23314e-06 -1.62462 -0.180919 -2.66511 
0.024375 0.0184687 1.85454 4.90242e+20 3.26011e-06 0.450058 0.775733 -0.70328 
0.025125 0.0184687 2.02551 4.82275e+20 3.20713e-06 1.22714 -0.997979 -2.12033 
0.024375 0.0186562 1.97338 4.91988e+20 3.27172e-06 1.7198 -2.52362 -1.63589 
0.025125 0.0186562 1.90186 4.69542e+20 3.12245e-06 -0.207461 1.45137 -2.01856 
0.025875 0.0184687 2.02993 5.06174e+20 3.36606e-06 2.19492 -0.0797519 -2.38218 
0.026625 0.0184687 1.96176 5.26397e+20 3.50054e-06 0.410394 -1.24543 -2.94063 
0.025875 0.0186562 1.92128 4.78035e+20 3.17893e-06 5.22137 -2.9097 0.93519 
0.026625 0.0186562 1.94248 4.88954e+20 3.25155e-06 -2.96827 -3.20863 1.92951 
0.024375 0.0192187 2.08762 4.64632e+20 3.08981e-06 -1.15254 1.12722 1.53831 
0.025125 0.0192187 1.98022 4.84655e+20 3.22295e-06 -1.52469 2.4237 2.92143 
0.024375 0.0194062 2.06103 4.5781e+20 3.04444e-06 2.50877 0.952061 0.102259 
0.025125 0.0194062 1.91252 5.16713e+20 3.43614e-06 1.20835 1.74966 -2.29928 
0.025875 0.0203437 2.08795 4.96796e+20 3.30369e-06 -0.286722 0.183637 0.727976 
0.026625 0.0203437 1.92455 4.82332e+20 3.2075e-06 3.65057 -1.3173 -3.09382 
0.025875 0.0205312 1.96619 5.24782e+20 3.4898e-06 0.00063377 1.25536 -3.28261 
0.026625 0.0205312 2.06382 4.80132e+20 3.19288e-06 -2.30458 -2.15482 -1.94139 
0.024375 0.0207187 1.93011 5.18394e+20 3.44732e-06 0.461177 -0.135681 2.09517 
0.025125 0.0207187 2.0117 5.06923e+20 3.37104e-06 2.07323 -4.49968 -4.25907 
0.024375 0.0209062 2.00131 4.41745e+20 2.9376e-06 1.4127 0.0792911 -4.3404 
0.025125 0.0209062 1.94312 4.95339e+20 3.294e-06 -2.17107 2.2255 -0.300006 
0.027375 0.0203437 1.96524 5.14042e+20 3.41838e-06 1.10091 -0.508204 3.10661 
0.028125 0.0203437 2.04722 4.69536e+20 3.12242e-06 0.337372 -1.78684 -1.47698 
0.027375 0.0205312 1.9911 4.91708e+20 3.26986e-06 -0.553173 2.75603 0.528886 
0.028125 0.0205312 1.98027 5.03284e+20 3.34684e-06 -1.5039 -0.702091 0.0844078 
0.009375 0.0109687 2.04605 5.5821e+20 3.7121e-06 -0.286761 -3.10157 -0.640546 
0.010125 0.0109687 1.96093 5.27256e+20 3.50625e-06 3.27819 5.24921 -6.98256 
0.009375 0.0111562 1.90828 5.93465e+20 3.94654e-06 1.49031 2.52282 -0.135879 
0.010125 0.0111562 2.09474 5.33611e+20 3.54852e-06 3.29431 1.452 -2.93667 
0.007875 0.0120938 1.9818 5.64305e+20 3.75263e-06 1.67386 0.325733 0.153639 
0.008625 0.0120938 1.96828 5.95187e+20 3.958e-06 2.38402 -2.16419 0.67956 
0.007875 0.0122813 2.08106 5.33573e+20 3.54826e-06 2.61104 -0.321377 -1.60305 
0.008625 0.0122813 1.98273 5.37259e+20 3.57277e-06 -0.867307 -1.25753 2.36988 
0.022875 0.0128438 1.95516 5.02274e+20 3.34012e-06 2.83061 0.529465 -2.3742 
0.023625 0.0128438 1.97285 5.11967e+20 3.40458e-06 -1.82847 1.49726 -0.0946744 
0.022875 0.0130313 1.97074 4.51622e+20 3.00328e-06 -3.38904 0.432474 4.7277 
0.023625 0.0130313 1.98589 5.50631e+20 3.6617e-06 1.64337 0.0478974 -1.05232 
0.021375 0.0180937 2.1007 4.75382e+20 3.16129e-06 -2.66419 2.36314 -2.74797 
0.022125 0.0180937 2.03136 4.99776e+20 3.32351e-06 0.766234 0.036442 1.92451 
0.021375 0.0182812 1.84634 4.83507e+20 3.21532e-06 -0.119176 -0.0193898 -0.641872 
0.022125 0.0182812 2.01167 4.96508e+20 3.30178e-06 0.562709 0.0934282 0.556688 
0.022875 0.0199687 1.94731 4.77787e+20 3.17728e-06 0.023505 0.0191651 -1.01636 
0.023625 0.0199687 2.01475 4.97624e+20 3.3092e-06 0.0510619 3.14056 5.24764 
0.022875 0.0201562 2.00449 4.71096e+20 3.13279e-06 -0.694049 -1.34034 1.34516 
0.023625 0.0201562 1.99758 4.79519e+20 3.1888e-06 -1.70046 -3.51825 1.14121 
0.02775 0.0039375 1.93796 5.08757e+20 3.38323e-06 -1.50835 -1.51735 -2.24752 
0.02925 0.0039375 1.93848 4.96541e+20 3.302e-06 0.0758369 -4.26861 3.79073 
0.02775 0.0043125 1.92353 4.97978e+20 3.31155e-06 2.29924 4.17145 2.18975 
0.02925 0.0043125 1.96657 4.94698e+20 3.28974e-06 2.36483 1.76775 -3.14552 
0.021375 0.0169687 1.99383 5.02897e+20 3.34427e-06 0.426182 1.7922 1.36767 
0.022125 0.0169687 2.01803 4.88224e+20 3.24669e-06 -6.79789 -0.123681 0.839914 
0.021375 0.0171562 2.03476 4.97401e+20 3.30772e-06 -0.446449 0.272291 -0.479453 
0.022125 0.0171562 1.92974 4.85527e+20 3.22875e-06 0.726396 -4.38227 1.62286 
0.022875 0.0169687 1.91873 5.23573e+20 3.48176e-06 2.52322 -1.27524 1.89588 
0.023625 0.0169687 1.93337 4.74884e+20 3.15798e-06 -0.336564 2.27052 -3.0377 
0.022875 0.0171562 1.88036 5.42259e+20 3.60602e-06 -1.50851 1.84877 -0.514244 
0.023625 0.0171562 1.91897 4.93443e+20 3.28139e-06 1.32052 -1.68599 -2.74984 
0.021375 0.0173437 2.04096 4.77667e+20 3.17649e-06 1.43844 -0.167547 1.99927 
0.022125 0.0173437 2.0199 5.15515e+20 3.42818e-06 0.258411 0.182167 -1.1091 
0.021375 0.0175312 2.01818 4.78369e+20 3.18115e-06 2.17621 -0.46645 0.305305 
0.022125 0.0175312 1.9995 4.88698e+20 3.24984e-06 3.29632 0.623285 -3.88479 
0.022875 0.0173437 2.06526 4.65269e+20 3.09404e-06 3.7052 -4.04106 -3.31014 
0.023625 0.0173437 1.93345 4.86803e+20 3.23724e-06 2.29871 -4.48117 0.724249 
0.023625 0.0175312 2.01778 4.60938e+20 3.06524e-06 6.13547 -5.57053 0.59739 
0.021375 0.0192187 1.98391 4.92899e+20 3.27778e-06 1.51501 2.34428 -0.348129 
0.022125 0.0192187 1.90986 4.94666e+20 3.28953e-06 -2.1095 4.91212 0.1936 
0.021375 0.0194062 1.97465 4.88137e+20 3.24611e-06 0.737189 -1.11189 -0.520244 
0.022125 0.0194062 2.01286 5.033e+20 3.34694e-06 -4.07122 -1.73167 -5.07887 
0.019875 0.0203437 1.99535 4.96796e+20 3.30369e-06 0.87798 -2.83236 -3.12755 
0.020625 0.0203437 1.99257 4.92902e+20 3.2778e-06 -3.01508 -1.20381 -2.52251 
0.019875 0.0205312 1.94243 4.87849e+20 3.2442e-06 -3.41987 -1.46881 2.73708 
0.018375 0.0120938 1.97125 5.21257e+20 3.46636e-06 1.07777 -4.84958 0.827767 
0.019125 0.0120938 1.90109 4.96925e+20 3.30455e-06 2.67334 0.561103 -4.0049 
0.018375 0.0122813 2.01211 5.08691e+20 3.3828e-06 0.129936 -0.00521467 -1.36246 
0.019125 0.0122813 2.18102 5.06848e+20 3.37054e-06 -2.27669 0.311704 -2.69196 
0.019875 0.0162188 1.94593 4.98938e+20 3.31794e-06 -3.39967 -1.05373 -2.438 
0.020625 0.0162188 2.0759 5.22663e+20 3.47571e-06 0.665074 -0.0164875 -0.700833 
0.019875 0.0164062 2.0193 4.66332e+20 3.10111e-06 -1.41608 -2.26155 -5.38103 
0.020625 0.0164062 1.9838 4.753e+20 3.16074e-06 -0.731004 1.08583 -1.97854 
0.019875 0.0165937 2.04984 4.48104e+20 2.97989e-06 -2.72154 0.391924 -2.62552 
0.020625 0.0165937 1.96454 4.84934e+20 3.22481e-06 -2.58275 0.826708 -5.02969 
0.019875 0.0167812 2.03959 4.81539e+20 3.20223e-06 -0.268612 0.552848 0.717549 
0.020625 0.0167812 2.09836 5.13911e+20 3.41751e-06 0.760578 -2.35226 4.384 
0.019875 0.0210937 2.02414 5.02203e+20 3.33965e-06 -1.21276 -4.28346 3.12743 
0.020625 0.0210937 1.98002 4.82888e+20 3.2112e-06 -3.9392 1.85466 2.0279 
0.019875 0.0212812 2.06507 4.95651e+20 3.29608e-06 3.84505 0.817203 -2.21636 
0.020625 0.0212812 1.92801 4.69061e+20 3.11925e-06 1.37068 -0.377284 1.14945 
0.02625 0.0054375 2.00411 4.80286e+20 3.1939e-06 2.2488 0.217572 2.58309 
0.01275 0.0061875 1.86417 4.77572e+20 3.17585e-06 1.20591 -1.06797 -2.19006 
0.01275 0.0065625 1.91839 4.69684e+20 3.1234e-06 3.59132 1.14364 -0.466019 
0.01275 0.0069375 2.11836 4.57296e+20 3.04102e-06 -0.458663 2.97762 2.1008 
0.01275 0.0073125 1.94691 4.9406e+20 3.2855e-06 -0.937974 -0.30646 -3.01881 
0.028875 0.0132188 1.98154 4.29804e+20 2.8582e-06 0.528379 3.8397 3.30932 
0.029625 0.0132188 1.99131 5.17135e+20 3.43895e-06 2.78971 1.00244 0.678156 
0.028875 0.0134063 1.9528 5.22566e+20 3.47506e-06 2.46196 -2.60829 -4.32926 
0.029625 0.0134063 1.98839 4.87953e+20 3.24489e-06 1.92433 -1.83191 2.14719 
0.027375 0.0135938 1.90902 4.87051e+20 3.23889e-06 -1.75843 1.95844 -0.322001 