ITEM: TIMESTEP
500000
ITEM: NUMBER OF CELLS
35011
ITEM: BOX BOUNDS oo ao pp
0 0.35
0 0.03
-0.1 0.1
ITEM: CELLS xc yc f_out[1] f_out[2] f_out[3] f_out[4] f_out[5] f_out[6] 
0.00875 0.01575 0 0 0 0 0 0 
0.00875 0.01875 0 0 0 0 0 0 
0.00875 0.02175 0 0 0 0 0 0 
0.00875 0.02475 0 0 0 0 0 0 
0.00875 0.02775 0 0 0 0 0 0 
0.02625 0.02475 0 0 0 0 0 0 
0.02625 0.02775 0 0 0 0 0 0 
0.00875 0.01425 0 0 0 0 0 0 
0.00875 0.01725 0 0 0 0 0 0 
0.00875 0.02025 0 0 0 0 0 0 
0.00875 0.02325 0 0 0 0 0 0 
0.00875 0.02625 0 0 0 0 0 0 
0.00875 0.02925 0 0 0 0 0 0 
0.02625 0.02325 0 0 0 0 0 0 
0.02625 0.02625 0 0 0 0 0 0 
0.02625 0.02925 0.0915506 6.21851e+15 4.13531e-11 -79.9597 8.32645 7.35895 
0.04375 0.02325 0 0 0 0 0 0 
0.04375 0.02625 0 0 0 0 0 0 
0.04375 0.02925 0.446947 2.69469e+16 1.79197e-10 -106.72 20.7785 -0.30892 
0.004375 0.013125 0 0 0 0 0 0 
0.013125 0.013125 0 0 0 0 0 0 
0.021875 0.022125 0 0 0 0 0 0 
0.030625 0.022125 0 0 0 0 0 0 
0.0021875 0.0001875 1.83547 1.25205e+22 8.32612e-05 27.0438 0.329162 -0.0810652 
0.0109375 0.0001875 2.17987 5.97806e+21 3.97541e-05 9.03076 2.14763 -0.309316 
0.0109375 0.0001875 2.22104 2.71624e+21 1.8063e-05 -12.042 2.33032 5.74099 
0.0153125 0.0001875 2.10008 2.47308e+21 1.6446e-05 1.31202 -0.213089 -2.02676 
0.0109375 0.0005625 1.91846 5.55244e+21 3.69237e-05 8.07175 6.33513 -0.596381 
0.0109375 0.0005625 2.05567 2.44995e+21 1.62921e-05 4.36851 3.45085 -4.4779 
0.0021875 0.0031875 0 0 0 0 0 0 
0.0021875 0.0035625 0 0 0 0 0 0 
0.0021875 0.0039375 0 0 0 0 0 0 
0.0021875 0.0043125 0 0 0 0 0 0 
0.0021875 0.0061875 0 0 0 0 0 0 
0.0021875 0.0065625 0 0 0 0 0 0 
0.0021875 0.0069375 0 0 0 0 0 0 
0.0021875 0.0073125 0 0 0 0 0 0 
0.0021875 0.0091875 0 0 0 0 0 0 
0.0021875 0.0095625 0 0 0 0 0 0 
0.0021875 0.0099375 0 0 0 0 0 0 
0.0021875 0.0103125 0 0 0 0 0 0 
0.0021875 0.0121875 0 0 0 0 0 0 
0.0021875 0.0125625 0 0 0 0 0 0 
0.0021875 0.0020625 0 0 0 0 0 0 
0.0021875 0.0024375 0 0 0 0 0 0 
0.0021875 0.0028125 0 0 0 0 0 0 
0.0021875 0.0046875 0 0 0 0 0 0 
0.0021875 0.0050625 0 0 0 0 0 0 
0.0021875 0.0054375 0 0 0 0 0 0 
0.0021875 0.0058125 0 0 0 0 0 0 
0.0021875 0.0076875 0 0 0 0 0 0 
0.0021875 0.0080625 0 0 0 0 0 0 
0.0021875 0.0084375 0 0 0 0 0 0 
0.0021875 0.0088125 0 0 0 0 0 0 
0.0021875 0.0106875 0 0 0 0 0 0 
0.0021875 0.0110625 0 0 0 0 0 0 
0.0021875 0.0114375 0 0 0 0 0 0 
0.0021875 0.0118125 0 0 0 0 0 0 
0.00765625 0.00046875 1.77327 5.34764e+21 3.55618e-05 47.1695 6.45245 0.543005 
0.00109375 0.00084375 0 0 0 0 0 0 
0.00109375 0.00103125 0 0 0 0 0 0 
0.00765625 0.00084375 1.8645 4.84727e+21 3.22344e-05 41.7594 10.2329 1.67947 
0.00109375 0.00121875 0 0 0 0 0 0 
0.00109375 0.00140625 0 0 0 0 0 0 
0.00546875 0.00309375 2.07306 3.22786e+21 2.14653e-05 -1.67806 3.23419 5.74317 
0.00546875 0.00328125 1.87698 3.39645e+21 2.25864e-05 1.17044 4.30637 -4.8175 
0.00546875 0.00346875 1.95379 3.42014e+21 2.27439e-05 -1.69259 3.93782 -4.14572 
0.00546875 0.00365625 1.99031 3.6599e+21 2.43383e-05 3.46742 1.83891 -1.7875 
0.0120312 0.00309375 2.05077 2.41444e+21 1.6056e-05 2.64933 -2.65284 1.44409 
0.0120312 0.00328125 2.01688 2.64777e+21 1.76077e-05 -2.4779 -0.175593 0.268711 
0.0120312 0.00346875 2.07064 2.5795e+21 1.71537e-05 -1.70027 -0.937081 -3.14326 
0.0120312 0.00365625 2.02695 2.35981e+21 1.56928e-05 6.6991 -7.20623 -1.20849 
0.00546875 0.00384375 2.04702 3.05529e+21 2.03177e-05 0.881509 6.58967 -4.86614 
0.00546875 0.00403125 1.78524 3.52753e+21 2.3458e-05 -2.28782 -1.4045 -0.957013 
0.00546875 0.00421875 1.82574 3.1151e+21 2.07154e-05 -1.1967 10.0725 -2.37353 
0.00546875 0.00440625 2.03801 3.05507e+21 2.03162e-05 3.98141 2.96107 -4.97492 
0.0120312 0.00384375 2.20167 2.44215e+21 1.62403e-05 1.18377 0.591451 -1.99244 
0.0120312 0.00403125 1.9323 2.61592e+21 1.73959e-05 -0.782193 -3.86622 0.500696 
0.0120312 0.00421875 2.07908 2.46652e+21 1.64023e-05 1.43397 6.19573 4.22908 
0.0120312 0.00440625 1.95873 2.45675e+21 1.63374e-05 3.73631 -2.85762 -4.65233 
0.00546875 0.00609375 2.00992 3.19886e+21 2.12724e-05 0.159833 5.85685 -1.15066 
0.00546875 0.00628125 2.02337 3.24964e+21 2.16101e-05 -0.605509 5.38 2.10924 
0.00546875 0.00646875 2.00141 3.22954e+21 2.14765e-05 -1.01034 4.26406 -4.69201 
0.00546875 0.00665625 1.93178 2.80251e+21 1.86367e-05 6.43473 6.42196 4.03195 
0.0120312 0.00609375 1.9333 2.27132e+21 1.51043e-05 -0.919025 2.2594 0.0769976 
0.0120312 0.00628125 1.99925 2.38158e+21 1.58375e-05 2.14231 -1.75732 -1.711 
0.0120312 0.00646875 2.01276 2.46693e+21 1.64051e-05 1.21545 0.490612 -3.42731 
0.0120312 0.00665625 2.03271 2.44545e+21 1.62622e-05 0.912081 -1.34293 -1.10148 
0.00546875 0.00684375 2.06003 3.07593e+21 2.04549e-05 0.577758 -0.30335 -3.93317 
0.00546875 0.00703125 1.99095 3.14729e+21 2.09295e-05 -1.81377 7.31897 0.398502 
0.00546875 0.00721875 1.79264 3.06554e+21 2.03859e-05 2.12481 5.78731 1.38228 
0.00546875 0.00740625 1.9884 3.05805e+21 2.0336e-05 -1.95821 0.342009 0.963763 
0.0120312 0.00721875 2.10777 2.33789e+21 1.5547e-05 1.21567 1.27816 1.10931 
0.0120312 0.00740625 1.97995 2.51601e+21 1.67315e-05 -1.53657 1.04041 -0.47234 
0.00546875 0.00909375 2.01034 2.83759e+21 1.887e-05 -2.6032 2.42079 3.21179 
0.00546875 0.00928125 2.00871 3.14609e+21 2.09215e-05 -5.94975 -1.23918 -2.75171 
0.00546875 0.00946875 1.97107 2.89817e+21 1.92728e-05 3.69719 2.04931 1.08547 
0.00546875 0.00965625 2.04719 2.85431e+21 1.89811e-05 2.37033 -1.77104 -1.17956 
0.0120312 0.00909375 1.88618 2.40053e+21 1.59635e-05 -1.6773 0.485534 2.15586 
0.00546875 0.0100312 2.02931 2.93078e+21 1.94897e-05 3.33636 1.94903 1.53392 
0.00546875 0.0102187 2.01482 2.87309e+21 1.91061e-05 0.416257 0.579733 -2.6244 
0.00546875 0.0120938 1.98954 2.91318e+21 1.93727e-05 -2.02923 -0.797312 3.43201 
0.00546875 0.0122813 1.9602 2.64428e+21 1.75845e-05 2.19266 -1.5762 -2.46442 
0.00546875 0.0124688 1.96734 2.77111e+21 1.84279e-05 -1.97427 5.08409 0.252721 
0.00546875 0.0126563 2.01769 2.91945e+21 1.94143e-05 -1.92351 6.78347 3.6249 
0.0185937 0.0216562 1.95409 2.47826e+21 1.64804e-05 0.520625 1.46732 -4.87222 
0.00546875 0.00178125 1.82146 3.22922e+21 2.14743e-05 2.33315 7.48785 3.27791 
0.00546875 0.00196875 1.94413 2.84052e+21 1.88894e-05 0.098297 7.28154 -2.62193 
0.00546875 0.00215625 1.8665 2.94549e+21 1.95875e-05 4.37179 6.84226 -3.3876 
0.00546875 0.00234375 1.94405 2.65872e+21 1.76805e-05 3.75045 -7.4754 7.46287 
0.00546875 0.00253125 1.89917 3.12457e+21 2.07784e-05 -0.715066 6.99132 3.21395 
0.00546875 0.00271875 2.00124 2.95316e+21 1.96385e-05 -1.93532 7.43425 -1.70264 
0.00546875 0.00290625 1.88324 3.65602e+21 2.43125e-05 -4.10742 1.82714 4.58638 
0.00984375 0.00234375 1.9155 3.82131e+21 2.54117e-05 -1.70931 16.1587 -2.08256 
0.0120312 0.00234375 1.9052 2.30934e+21 1.53571e-05 0.530306 -0.507625 -2.13768 
0.00984375 0.00253125 1.97546 4.02407e+21 2.676e-05 2.71429 14.2948 0.796346 
0.0120312 0.00253125 1.90896 2.446e+21 1.62659e-05 4.89303 7.67532 5.87343 
0.00984375 0.00271875 1.92827 3.94668e+21 2.62454e-05 -1.81114 14.5304 -5.23979 
0.0120312 0.00271875 1.96221 2.13039e+21 1.41671e-05 6.38412 -4.44179 0.442252 
0.0120312 0.00290625 1.93314 2.36404e+21 1.57209e-05 -5.56178 -6.82708 -6.2568 
0.00546875 0.00459375 1.87018 3.39992e+21 2.26095e-05 0.378084 7.61495 0.508542 
0.00546875 0.00478125 2.00651 3.42533e+21 2.27784e-05 -1.44438 -0.561613 -2.43026 
0.00546875 0.00496875 1.97195 3.15137e+21 2.09566e-05 -0.912621 6.81766 -6.51306 
0.00546875 0.00515625 2.05568 3.30791e+21 2.19976e-05 3.22992 5.46516 4.14089 
0.0120312 0.00459375 1.96976 2.33908e+21 1.55549e-05 1.33639 3.10406 3.15432 
0.0120312 0.00478125 1.99723 2.48963e+21 1.6556e-05 2.45119 3.60186 -3.38469 
0.00546875 0.00534375 1.92483 3.21427e+21 2.13749e-05 2.35472 -1.73208 -3.09386 
0.00546875 0.00553125 2.07469 3.22086e+21 2.14187e-05 -7.45521 9.96009 -1.93316 
0.00546875 0.00571875 2.13957 3.26892e+21 2.17383e-05 -1.13912 1.96021 -3.90856 
0.00546875 0.00590625 1.94005 3.18544e+21 2.11832e-05 -0.206861 2.22654 0.764211 
0.0120312 0.00534375 2.13725 2.33969e+21 1.55589e-05 -1.97528 -0.374784 -0.834203 
0.0120312 0.00553125 1.91714 2.58535e+21 1.71926e-05 1.67841 2.74086 1.3943 
0.0120312 0.00571875 1.9641 2.45518e+21 1.6327e-05 -1.87622 0.445907 2.43677 
0.0120312 0.00590625 1.97919 2.34681e+21 1.56063e-05 0.262733 -2.56282 4.84253 
0.00546875 0.00759375 1.91845 3.08775e+21 2.05335e-05 1.40312 5.61056 -2.51919 
0.00546875 0.00778125 2.07498 2.7772e+21 1.84684e-05 -5.72746 3.88166 4.20373 
0.00546875 0.00796875 2.03391 3.04771e+21 2.02673e-05 1.03959 7.53625 -3.52555 
0.00546875 0.00815625 1.9963 3.08539e+21 2.05178e-05 -4.79997 2.60168 0.712916 
0.0120312 0.00759375 2.01747 2.48282e+21 1.65108e-05 0.714187 0.259291 -1.55886 
0.0120312 0.00815625 1.94645 2.48055e+21 1.64957e-05 -0.597739 -2.76516 -2.21691 
0.00546875 0.00834375 2.02668 3.07829e+21 2.04706e-05 3.46822 3.14843 0.770773 
0.00546875 0.00853125 1.97234 3.15578e+21 2.0986e-05 3.9702 0.687446 3.28027 
0.00546875 0.00871875 1.97558 2.9688e+21 1.97425e-05 -1.72025 3.84689 -3.20555 
0.00546875 0.00890625 2.0275 2.98254e+21 1.98339e-05 -2.93618 -0.122866 -0.41303 
0.0120312 0.00853125 1.98197 2.34577e+21 1.55994e-05 -0.30478 -2.25924 -1.50737 
0.0120312 0.00890625 2.03866 2.44434e+21 1.62549e-05 -0.734628 1.0273 -0.215516 
0.00546875 0.0105937 1.96343 3.0014e+21 1.99593e-05 0.758643 3.64419 2.66464 
0.00546875 0.0107812 1.96745 2.84546e+21 1.89223e-05 -1.46946 -2.09973 2.81471 
0.00546875 0.0109687 2.00654 2.72398e+21 1.81145e-05 -0.0697271 1.29543 -1.59147 
0.00546875 0.0111562 1.92319 2.80352e+21 1.86434e-05 -5.29368 0.618737 1.07911 
0.00546875 0.0113437 1.91778 2.84169e+21 1.88972e-05 5.93132 -2.09725 0.0793103 
0.00546875 0.0115312 1.9843 2.83359e+21 1.88434e-05 -1.61497 0.390893 1.84041 
0.00546875 0.0119063 1.94479 2.84499e+21 1.89192e-05 -2.75505 1.76009 1.41381 
0.0251562 0.00159375 2.10485 2.54673e+21 1.69357e-05 -0.0959857 -1.92507 -1.74562 
0.0404687 0.00178125 2.08391 2.5771e+21 1.71377e-05 2.42158 -2.5143 -2.53977 
0.0470312 0.00159375 1.91579 2.3909e+21 1.58995e-05 1.1584 0.356069 -1.69054 
0.0470312 0.00196875 2.06259 2.44597e+21 1.62657e-05 3.28273 -2.5956 5.60151 
0.0196875 0.0001875 1.86233 2.84042e+21 1.88888e-05 -1.85193 -4.41152 -0.035159 
0.0240625 0.0001875 2.20308 2.3903e+21 1.58955e-05 1.1175 2.31493 -3.28055 
0.0284375 0.0001875 1.97557 2.47308e+21 1.6446e-05 -2.69435 1.78814 -1.5683 
0.0328125 0.0001875 1.98136 2.66968e+21 1.77534e-05 1.3975 3.07037 0.601984 
0.00546875 9.375e-05 1.79243 1.07201e+22 7.12887e-05 39.4455 4.16382 2.33753 
0.00765625 9.375e-05 1.71267 4.55294e+21 3.02771e-05 44.4177 5.9868 -5.08075 
0.00546875 0.00028125 1.8301 9.69915e+21 6.44993e-05 48.5073 -1.95066 -1.33198 
0.00765625 0.00028125 1.82353 4.7323e+21 3.14698e-05 47.8474 0.539245 -1.83661 
0.00109375 0.00046875 0 0 0 0 0 0 
0.00328125 0.00046875 1.99924 1.30622e+22 8.68638e-05 31.5841 0.179768 2.50779 
0.00109375 0.00065625 0 0 0 0 0 0 
0.0142187 0.00121875 2.01031 2.4293e+21 1.61548e-05 -0.304149 -3.50861 -2.64614 
0.0164062 0.00121875 2.03386 2.43885e+21 1.62183e-05 4.09934 -1.64003 -1.39227 
0.0164062 0.00140625 1.94393 2.56344e+21 1.70469e-05 2.66392 1.53544 -0.0606307 
0.0120312 0.00684375 2.03573 2.44265e+21 1.62436e-05 3.45879 1.41161 2.48218 
0.0229687 0.00121875 1.98064 2.50571e+21 1.6663e-05 0.0887295 -0.647977 -0.221002 
0.0251562 0.00121875 1.9431 2.52481e+21 1.679e-05 6.48119 2.1946 -3.28053 
0.0229687 0.00140625 2.01715 2.46963e+21 1.6423e-05 -1.09326 3.86177 -0.718048 
0.0317187 0.00121875 2.02996 2.47387e+21 1.64512e-05 4.71436 -1.14835 0.592193 
0.0339062 0.00121875 1.98264 2.42293e+21 1.61125e-05 2.87874 -4.30221 0.906245 
0.0317187 0.00140625 1.92854 2.35649e+21 1.56707e-05 -0.414605 -1.03935 -0.96374 
0.0339062 0.00140625 2.06312 2.61863e+21 1.74139e-05 5.1531 -0.817937 1.59826 
0.0164062 0.00159375 1.95306 2.38116e+21 1.58347e-05 -4.19193 -2.21764 -1.23708 
0.0164062 0.00178125 1.9624 2.40282e+21 1.59788e-05 -1.07581 2.93916 -2.88991 
0.0120312 0.00496875 1.97566 2.40774e+21 1.60115e-05 2.74696 0.363397 -1.31171 
0.0120312 0.00515625 2.0551 2.2311e+21 1.48368e-05 1.86685 0.0822369 1.07132 
0.0185937 0.00159375 2.074 2.42742e+21 1.61424e-05 2.07012 0.243162 -0.170182 
0.0207812 0.00159375 2.0138 2.57594e+21 1.713e-05 -1.15899 0.35285 -2.17826 
0.0360937 0.00159375 1.92005 2.55403e+21 1.69843e-05 1.19841 -2.11266 -1.8186 
0.0382812 0.00178125 2.0309 2.37232e+21 1.57759e-05 2.46027 4.33095 2.32716 
0.0492187 0.00159375 2.01573 2.53942e+21 1.68872e-05 6.04483 -1.96293 -0.94383 
0.0514062 0.00159375 1.8801 2.51994e+21 1.67576e-05 -0.0403873 -0.365108 -0.868089 
0.00492187 0.000609375 1.85227 1.20733e+22 8.02872e-05 40.2883 0.46277 -2.22054 
0.00601562 0.000609375 1.79644 9.37333e+21 6.23327e-05 44.9664 0.438876 -0.503538 
0.00492187 0.000703125 1.77604 1.07725e+22 7.16374e-05 43.1554 -1.1453 -0.347633 
0.00601562 0.000703125 1.68474 8.49883e+21 5.65172e-05 50.1917 5.72956 0.822968 
0.00273437 0.000984375 1.85524 1.36265e+22 9.0616e-05 34.3708 5.37808 7.15919 
0.00382812 0.000984375 1.88407 1.40333e+22 9.33215e-05 27.8917 -3.37453 0.502414 
0.00273437 0.00107813 1.7838 1.55519e+22 0.00010342 24.4373 0.503196 5.22794 
0.00382812 0.00107813 1.90442 1.31298e+22 8.73128e-05 23.5033 -3.84125 0.584163 
0.00492187 0.000796875 1.92559 1.03427e+22 6.87791e-05 32.3382 0.192257 -5.67367 
0.00601562 0.000796875 1.70143 8.68711e+21 5.77693e-05 45.4268 2.72026 -1.52252 
0.00492187 0.000890625 1.90795 1.11013e+22 7.38239e-05 38.0394 -0.186075 3.63285 
0.00601562 0.000890625 1.89995 7.84239e+21 5.21519e-05 44.9731 1.56641 2.18493 
0.00492187 0.000984375 1.97896 1.08009e+22 7.18261e-05 34.9128 -2.50289 -0.00796214 
0.00601562 0.000984375 1.78534 9.30298e+21 6.18648e-05 45.2957 4.44734 0.138373 
0.00492187 0.00107813 1.97695 1.09415e+22 7.27607e-05 28.9817 -1.47662 2.79243 
0.00601562 0.00107813 1.86664 8.40765e+21 5.59109e-05 37.2295 3.33452 3.31937 
0.00273437 0.00117188 1.95336 1.23047e+22 8.18262e-05 24.8595 -7.86274 -0.68652 
0.00273437 0.00126563 1.80092 1.6295e+22 0.000108362 31.2187 8.09479 -3.7525 
0.00273437 0.00135937 1.90213 1.75147e+22 0.000116473 22.3299 -8.20367 -9.70788 
0.00273437 0.00145312 1.78809 1.46539e+22 9.74487e-05 15.6214 -6.119 -4.30324 
0.00601562 0.00117188 1.90124 7.80126e+21 5.18784e-05 38.8857 0.36072 -2.65133 
0.00492187 0.00126563 1.99988 1.01177e+22 6.72824e-05 24.6552 -3.73562 2.24943 
0.00601562 0.00126563 1.93888 8.04507e+21 5.34997e-05 41.0425 -1.48516 0.725587 
0.00492187 0.00135937 1.91557 1.03676e+22 6.89444e-05 22.8456 -1.83497 -2.23021 
0.00601562 0.00135937 1.87474 7.88986e+21 5.24676e-05 28.4657 1.65634 1.88663 
0.00601562 0.00145312 1.93432 7.43425e+21 4.94378e-05 28.8421 -0.325765 5.04314 
0.00710937 0.00135937 1.81661 4.59005e+21 3.05238e-05 39.5028 15.522 1.51387 
0.00820312 0.00135937 2.08047 4.179e+21 2.77904e-05 17.0407 15.6326 1.81294 
0.00710937 0.00145312 1.8744 4.71049e+21 3.13248e-05 34.0103 21.4186 -2.62732 
0.00820312 0.00145312 1.91521 4.09097e+21 2.7205e-05 16.641 17.1743 -0.0799806 
0.00710937 0.00304688 1.99141 3.39783e+21 2.25956e-05 1.22701 12.9299 -0.381426 
0.00820312 0.00304688 2.12002 3.66783e+21 2.4391e-05 -3.26477 11.0538 1.70935 
0.00710937 0.00314063 2.06915 3.59293e+21 2.3893e-05 2.39465 10.0456 0.0922166 
0.00820312 0.00314063 1.93957 3.4249e+21 2.27756e-05 1.94796 14.0231 0.200058 
0.00710937 0.00323438 1.96242 3.37362e+21 2.24346e-05 -0.773039 8.76801 -0.0789428 
0.00820312 0.00323438 1.86689 3.54158e+21 2.35515e-05 -5.77173 15.4383 -0.630909 
0.00710937 0.00332813 1.89389 3.44648e+21 2.29191e-05 -1.72568 8.08248 -0.222859 
0.00820312 0.00332813 2.04252 3.65635e+21 2.43147e-05 0.448201 17.3112 2.28039 
0.00710937 0.00342187 1.97209 3.22505e+21 2.14466e-05 -3.41381 7.89336 0.518536 
0.00820312 0.00342187 1.9346 3.42463e+21 2.27738e-05 1.76168 10.4656 -2.46143 
0.00710937 0.00351562 1.86801 3.39512e+21 2.25775e-05 -1.88019 6.81821 -3.95801 
0.00820312 0.00351562 1.94192 3.48783e+21 2.31941e-05 -4.36262 13.9942 0.802859 
0.00710937 0.00360937 2.00853 3.49184e+21 2.32208e-05 -0.426387 6.12328 0.199771 
0.00820312 0.00360937 1.99688 3.48754e+21 2.31922e-05 -0.710871 13.6321 -0.884309 
0.00710937 0.00370312 2.01635 3.16872e+21 2.1072e-05 -1.00946 8.28404 3.97871 
0.00820312 0.00370312 1.98477 3.52499e+21 2.34412e-05 1.13602 10.1721 -2.82424 
0.00710937 0.00379687 2.01789 3.29897e+21 2.19381e-05 -0.647341 9.31382 -2.86585 
0.00820312 0.00379687 1.88846 3.36846e+21 2.24003e-05 0.500985 12.0121 -0.589227 
0.00820312 0.00389062 1.9945 3.64235e+21 2.42217e-05 -3.30957 14.4949 -2.98925 
0.00710937 0.00398438 1.94524 3.45926e+21 2.30041e-05 -3.71634 11.4675 -0.884461 
0.00820312 0.00398438 1.8746 3.42031e+21 2.2745e-05 -3.54068 12.7442 -1.78002 
0.00710937 0.00407813 2.01066 3.36832e+21 2.23993e-05 0.518358 7.90015 1.23944 
0.00820312 0.00407813 1.9724 3.33787e+21 2.21969e-05 -3.26936 17.2081 1.2539 
0.00710937 0.00417188 2.06314 3.33355e+21 2.21681e-05 -4.29122 10.4038 2.46393 
0.00820312 0.00417188 1.92766 3.35216e+21 2.22918e-05 -1.90195 11.9098 0.748026 
0.00710937 0.00426563 1.96788 3.23846e+21 2.15357e-05 -1.37145 3.85621 -3.07644 
0.00820312 0.00426563 1.90486 3.2421e+21 2.15599e-05 -2.34042 9.13693 -3.24324 
0.00710937 0.00435938 2.03885 3.21866e+21 2.14041e-05 0.732261 8.75542 -5.15247 
0.00820312 0.00435938 1.93917 3.39312e+21 2.25643e-05 -0.865317 8.87223 -0.491392 
0.00710937 0.00445313 1.94805 3.44717e+21 2.29237e-05 -1.41904 7.81603 1.98053 
0.00820312 0.00445313 1.94804 3.31123e+21 2.20197e-05 -1.67324 10.4605 -1.99481 
0.0136719 0.00604688 2.03319 2.53091e+21 1.68306e-05 2.1647 -1.42397 3.37921 
0.0147656 0.00604688 1.99204 2.44107e+21 1.62331e-05 -1.46092 -2.24102 1.30444 
0.0147656 0.00614063 2.07221 2.38864e+21 1.58844e-05 5.01047 -3.68513 -4.62618 
0.0158594 0.00604688 2.0184 2.60792e+21 1.73426e-05 0.113131 0.737198 -0.317339 
0.0158594 0.00614063 2.03976 2.26225e+21 1.5044e-05 -2.60161 0.282437 3.00625 
0.0136719 0.00623438 1.96467 2.39504e+21 1.5927e-05 3.05174 2.03925 3.59767 
0.0136719 0.00632813 1.97214 2.59012e+21 1.72243e-05 3.22306 1.04745 -1.99187 
0.00929687 0.00642188 1.96598 3.13159e+21 2.0825e-05 2.357 0.952337 -0.0327735 
0.0103906 0.00642188 0 0 0 0 0 0 
0.00929687 0.00651563 2.0296 3.0264e+21 2.01256e-05 4.68172 2.91091 1.46384 
0.0103906 0.00651563 0 0 0 0 0 0 
0.0136719 0.00651563 1.92952 2.43935e+21 1.62217e-05 -0.0409001 -2.29759 -3.81133 
0.0147656 0.00660938 1.95507 2.58793e+21 1.72097e-05 2.11881 -0.300736 0.418047 
0.0147656 0.00679687 2.01372 2.48685e+21 1.65375e-05 -0.356822 -3.0563 -1.71142 
0.0136719 0.00689062 1.93994 2.45527e+21 1.63275e-05 1.48591 -1.80094 1.45469 
0.0169531 0.00689062 1.90791 2.54762e+21 1.69417e-05 2.19121 2.79227 -1.26838 
0.0169531 0.00698437 1.99952 2.45787e+21 1.63448e-05 -0.187727 -4.58073 2.32782 
0.0169531 0.00717187 1.95279 2.38928e+21 1.58887e-05 1.61845 -0.410202 -3.24085 
0.0169531 0.00745312 1.9709 2.59067e+21 1.7228e-05 2.35708 -5.00262 1.12693 
0.0103906 0.00904687 0 0 0 0 0 0 
0.0103906 0.00914062 0 0 0 0 0 0 
0.0103906 0.00942187 0 0 0 0 0 0 
0.0103906 0.00951562 1.9892 2.70621e+21 1.79963e-05 0.457707 -3.44976 1.55116 
0.0103906 0.0127031 1.95644 2.76509e+21 1.83879e-05 1.77631 -4.66204 0.476576 
0.0125781 0.0127031 1.98682 2.67065e+21 1.77598e-05 -1.10311 2.97871 -2.57485 
0.0158594 0.0127031 1.94671 2.52898e+21 1.68177e-05 1.95676 -0.101485 -0.10885 
0.0169531 0.0127031 2.034 2.53161e+21 1.68352e-05 3.00685 2.32322 1.21471 
0.0267969 0.00360937 1.92621 2.54148e+21 1.69008e-05 -3.71289 1.71807 0.236072 
0.0278906 0.00360937 2.05223 2.30926e+21 1.53566e-05 5.38877 -1.03586 6.05965 
0.0267969 0.00370312 1.93414 2.25918e+21 1.50236e-05 0.71282 -1.14411 1.83549 
0.0278906 0.00370312 1.922 2.42265e+21 1.61106e-05 -3.74008 0.497431 -0.156774 
0.0311719 0.00342187 2.00389 2.40404e+21 1.59869e-05 -0.653049 0.0079356 4.40724 
0.0322656 0.00342187 1.93183 2.60363e+21 1.73141e-05 2.18024 -0.493793 -4.22034 
0.0311719 0.00351562 1.95177 2.49005e+21 1.65588e-05 3.18607 -0.221449 2.73489 
0.0322656 0.00351562 1.83514 2.48122e+21 1.65001e-05 0.406147 2.69983 -2.67138 
0.0246094 0.00379687 2.01383 2.58767e+21 1.7208e-05 2.09587 -0.18572 -2.82121 
0.0257031 0.00379687 2.04559 2.42006e+21 1.60934e-05 -0.321846 2.79972 4.67605 
0.0246094 0.00389062 1.91263 2.32185e+21 1.54403e-05 0.28158 0.332839 -1.86584 
0.0257031 0.00389062 1.99857 2.44951e+21 1.62893e-05 0.0497001 2.68793 -3.99849 
0.0180469 0.00417188 2.01724 2.46296e+21 1.63787e-05 2.30477 2.72878 3.43223 
0.0191406 0.00417188 1.96139 2.44808e+21 1.62797e-05 0.292076 -0.39473 0.157781 
0.0180469 0.00426563 2.03978 2.36153e+21 1.57042e-05 2.92078 0.705079 1.6519 
0.0191406 0.00426563 2.07304 2.54346e+21 1.6914e-05 1.36183 -0.478752 3.55148 
0.0180469 0.00435938 1.96532 2.59914e+21 1.72843e-05 -0.396268 -1.02834 0.778333 
0.0191406 0.00435938 1.99979 2.37483e+21 1.57926e-05 1.98645 1.97524 -0.534928 
0.0180469 0.00445313 2.00777 2.53396e+21 1.68509e-05 -0.525615 0.045092 1.30716 
0.0191406 0.00445313 1.97114 2.37712e+21 1.58078e-05 3.1802 0.258753 -0.51507 
0.0289844 0.00417188 2.08365 2.40715e+21 1.60076e-05 1.39595 1.99954 1.99636 
0.0300781 0.00417188 1.96025 2.57458e+21 1.71209e-05 3.05871 -0.694427 -1.94806 
0.0289844 0.00426563 1.91611 2.55438e+21 1.69866e-05 1.43467 -1.80216 -0.523318 
0.0300781 0.00426563 1.97237 2.52163e+21 1.67688e-05 -0.40131 -4.50468 1.89615 
0.0191406 0.00604688 2.00115 2.50267e+21 1.66428e-05 5.84868 -0.54893 1.73657 
0.0180469 0.00614063 1.94887 2.50996e+21 1.66913e-05 2.23428 1.08351 2.28856 
0.0191406 0.00614063 2.05423 2.33303e+21 1.55146e-05 -1.30516 0.117615 1.40459 
0.0213281 0.00604688 1.94939 2.53861e+21 1.68818e-05 3.55878 1.9927 2.58098 
0.0202344 0.00614063 1.92581 2.26984e+21 1.50944e-05 5.74601 -2.06707 -0.503059 
0.0213281 0.00614063 2.0612 2.37347e+21 1.57836e-05 3.77539 0.427508 0.737971 
0.0180469 0.00623438 2.11621 2.4299e+21 1.61588e-05 4.6149 -0.0777452 -1.87621 
0.0191406 0.00623438 2.04975 2.46724e+21 1.64072e-05 2.71337 2.12202 -0.239405 
0.0180469 0.00632813 2.02132 2.37673e+21 1.58052e-05 -0.485783 -0.492952 0.97123 
0.0191406 0.00632813 1.96006 2.38899e+21 1.58868e-05 -2.83349 0.392799 -0.861241 
0.0202344 0.00632813 2.03071 2.5288e+21 1.68165e-05 1.64255 0.960549 -0.555318 
0.0224219 0.00604688 2.05865 2.47701e+21 1.64721e-05 3.79285 1.69293 0.54495 
0.0224219 0.00614063 2.01808 2.36083e+21 1.56995e-05 -0.609645 -3.26278 0.68883 
0.0246094 0.00614063 1.97849 2.41644e+21 1.60693e-05 0.582204 -2.85617 -1.22691 
0.0224219 0.00632813 2.05345 2.3522e+21 1.56421e-05 2.37098 -0.845034 1.32999 
0.0246094 0.00623438 1.98688 2.46226e+21 1.6374e-05 1.76877 -2.75813 -5.11438 
0.0257031 0.00623438 2.0136 2.4299e+21 1.61588e-05 2.42496 -1.28763 1.63366 
0.0257031 0.00632813 2.06584 2.40371e+21 1.59847e-05 1.85883 1.06492 -0.788865 
0.0180469 0.00642188 2.02272 2.32753e+21 1.54781e-05 1.48066 -2.25476 1.74523 
0.0213281 0.00642188 2.02535 2.42662e+21 1.61371e-05 8.46946 -3.59082 0.390409 
0.0202344 0.00651563 2.09128 2.43697e+21 1.62059e-05 4.54339 -0.0769571 2.04298 
0.0180469 0.00670313 1.97785 2.47532e+21 1.64609e-05 3.20418 -0.611428 2.87114 
0.0202344 0.00660938 1.96168 2.41884e+21 1.60853e-05 6.33191 0.66495 1.83802 
0.0213281 0.00660938 1.95356 2.46816e+21 1.64133e-05 2.1576 0.742511 -2.11764 
0.0235156 0.00651563 2.01805 2.43697e+21 1.62059e-05 1.32233 0.247514 -0.987293 
0.0246094 0.00642188 1.95499 2.37829e+21 1.58156e-05 3.77218 3.08552 1.62798 
0.0257031 0.00642188 1.92596 2.51364e+21 1.67157e-05 2.9473 1.03083 -1.74097 
0.0246094 0.00660938 1.9876 2.42589e+21 1.61322e-05 3.19979 1.83352 0.332802 
0.0278906 0.00604688 1.92738 2.48471e+21 1.65233e-05 4.23426 1.03191 0.369051 
0.0267969 0.00614063 1.93229 2.49985e+21 1.6624e-05 2.89669 -0.811487 -2.49207 
0.0289844 0.00604688 2.08081 2.52834e+21 1.68135e-05 0.784804 1.90864 1.8975 
0.0300781 0.00604688 1.87142 2.56685e+21 1.70695e-05 4.26711 -1.11513 -5.22646 
0.0300781 0.00614063 1.96302 2.46447e+21 1.63887e-05 2.97345 0.495354 -0.836241 
0.0267969 0.00623438 2.00708 2.48965e+21 1.65562e-05 3.93665 2.56538 -0.148723 
0.0278906 0.00623438 1.95314 2.44981e+21 1.62913e-05 1.40057 0.127291 1.34128 
0.0278906 0.00632813 2.03699 2.46257e+21 1.63761e-05 1.51671 1.06299 -3.05361 
0.0289844 0.00623438 1.96989 2.5967e+21 1.72681e-05 -0.407334 -0.323183 -2.00066 
0.0289844 0.00632813 2.044 2.50918e+21 1.6686e-05 4.58988 -0.866294 -1.89679 
0.0333594 0.00604688 1.99097 2.45647e+21 1.63355e-05 5.56817 3.63061 0.495482 
0.0344531 0.00604688 2.01418 2.3384e+21 1.55503e-05 1.56396 3.80501 -0.711595 
0.0333594 0.00614063 1.91287 2.38611e+21 1.58676e-05 2.80485 0.370149 -0.298079 
0.0267969 0.00670313 2.03131 2.37807e+21 1.58141e-05 1.32557 0.0394713 0.138399 
0.0311719 0.00642188 2.02666 2.42662e+21 1.61371e-05 1.90723 -0.00543893 2.14671 
0.0322656 0.00660938 2.03039 2.51278e+21 1.671e-05 -0.246452 -0.35397 1.06577 
0.0333594 0.00660938 2.07868 2.41415e+21 1.60541e-05 -0.437007 2.33338 1.6526 
0.0344531 0.00660938 1.99452 2.52452e+21 1.67881e-05 -0.171058 0.573551 2.86015 
0.0180469 0.00679687 2.0447 2.49827e+21 1.66135e-05 2.98966 -5.14909 3.66651 
0.0180469 0.00689062 2.00079 2.56339e+21 1.70465e-05 3.12514 -0.444571 0.78615 
0.0191406 0.00689062 1.93532 2.51158e+21 1.6702e-05 2.17993 -2.69469 -1.3698 
0.0213281 0.00689062 2.02063 2.45527e+21 1.63275e-05 5.80879 0.196064 0.186597 
0.0213281 0.00698437 1.98558 2.37342e+21 1.57832e-05 1.37086 -0.426479 -1.66239 
0.0235156 0.00679687 2.00522 2.48457e+21 1.65224e-05 1.21423 -1.30248 -2.69902 
0.0235156 0.00689062 2.0215 2.41247e+21 1.60429e-05 -0.119257 -4.35758 0.0326213 
0.0235156 0.00698437 2.00926 2.5312e+21 1.68325e-05 -1.90981 2.20165 -1.78317 
0.0224219 0.00707812 1.99543 2.44066e+21 1.62304e-05 3.37686 2.16043 -3.32249 
0.0246094 0.00717187 1.96312 2.47152e+21 1.64356e-05 0.543927 -0.89919 -3.45971 
0.0257031 0.00735937 2.03438 2.36848e+21 1.57504e-05 7.1683 -1.71195 0.587185 
0.0278906 0.00679687 1.98213 2.48685e+21 1.65375e-05 3.99592 -0.00302974 2.01646 
0.0311719 0.00698437 1.99735 2.54231e+21 1.69064e-05 0.242425 3.50971 -3.57612 
0.0267969 0.00735937 1.9964 2.55197e+21 1.69706e-05 1.22294 0.815023 2.9957 
0.0344531 0.00726562 2.11801 2.37768e+21 1.58116e-05 1.42608 -2.27792 0.7319 
0.0180469 0.0127031 2.00283 2.47127e+21 1.64339e-05 3.02496 -0.0926744 3.28295 
0.0180469 0.0154219 0 0 0 0 0 0 
0.0180469 0.0155156 0 0 0 0 0 0 
0.0180469 0.0182344 0 0 0 0 0 0 
0.0180469 0.0183281 0 0 0 0 0 0 
0.0180469 0.0186094 0 0 0 0 0 0 
0.0180469 0.0187031 0 0 0 0 0 0 
0.0180469 0.0191719 0 0 0 0 0 0 
0.0180469 0.0192656 0 0 0 0 0 0 
0.00601562 0.00154688 1.93252 7.39969e+21 4.92079e-05 20.7316 0.856691 -1.11029 
0.00492187 0.00164063 0 0 0 0 0 0 
0.00601562 0.00164063 1.77427 3.50601e+21 2.3315e-05 23.0183 24.0785 -11.5939 
0.00710937 0.00267187 1.92049 3.49132e+21 2.32172e-05 -1.59386 14.8713 2.49073 
0.00820312 0.00267187 1.98664 3.69464e+21 2.45693e-05 4.67179 20.2276 6.67851 
0.00710937 0.00276562 1.94481 3.22705e+21 2.14599e-05 -1.96162 7.12019 -3.83421 
0.00820312 0.00276562 1.90059 3.71531e+21 2.47068e-05 2.83004 17.2212 -1.94377 
0.00710937 0.00454687 1.91945 3.27368e+21 2.177e-05 0.0382123 12.0268 -0.214736 
0.00820312 0.00454687 2.01802 3.24637e+21 2.15884e-05 0.0576803 11.4909 -1.67709 
0.00710937 0.00464062 2.01905 3.3012e+21 2.1953e-05 -0.584465 5.59182 -3.68615 
0.00820312 0.00464062 1.96048 3.22427e+21 2.14414e-05 -1.52129 10.1233 0.44125 
0.00820312 0.00473437 2.02484 3.0719e+21 2.04282e-05 2.10888 13.6108 -3.91087 
0.00710937 0.00492187 2.00588 3.12202e+21 2.07614e-05 -4.52924 7.38561 0.888405 
0.00820312 0.00510937 2.02463 3.27174e+21 2.17571e-05 -1.12181 8.52787 0.994474 
0.00710937 0.00520312 1.99859 3.2456e+21 2.15833e-05 -0.0990239 8.05137 1.75209 
0.0136719 0.00473437 2.09844 2.42277e+21 1.61114e-05 4.82349 0.241632 -1.85272 
0.0147656 0.00473437 1.97688 2.43589e+21 1.61986e-05 3.3587 -3.04242 1.93552 
0.0136719 0.00482812 2.02005 2.27928e+21 1.51572e-05 -0.686527 0.364535 -0.81026 
0.0147656 0.00482812 2.03027 2.58147e+21 1.71668e-05 2.88192 -2.58898 1.00042 
0.00710937 0.00539062 1.99649 3.30835e+21 2.20005e-05 0.0174092 6.79546 0.0914963 
0.00820312 0.00567187 2.04611 3.08957e+21 2.05456e-05 1.46053 12.0194 0.285924 
0.00820312 0.00585938 1.87031 3.06223e+21 2.03638e-05 -4.61542 5.77578 1.85952 
0.0136719 0.00529687 2.01323 2.42042e+21 1.60958e-05 4.8742 0.367687 3.47404 
0.0147656 0.00529687 1.99167 2.43507e+21 1.61932e-05 -0.446415 0.394276 -0.0742752 
0.0136719 0.00539062 2.12313 2.48198e+21 1.65052e-05 1.99492 0.565663 -1.18726 
0.0147656 0.00567187 1.94913 2.38354e+21 1.58505e-05 1.17358 -0.777913 -0.225268 
0.0136719 0.00576562 2.10953 2.46593e+21 1.63984e-05 1.46605 -3.11087 -0.694217 
0.0147656 0.00576562 2.14599 2.47131e+21 1.64342e-05 2.68369 -1.06909 -2.40382 
0.0169531 0.00567187 2.01661 2.39996e+21 1.59597e-05 4.27898 -3.22935 -4.37721 
0.0136719 0.00585938 2.08029 2.49534e+21 1.6594e-05 -0.0948292 -1.67334 -0.62718 
0.0147656 0.00585938 1.93928 2.32581e+21 1.54666e-05 -0.188743 -2.63184 0.620094 
0.0136719 0.00595313 2.03568 2.32829e+21 1.54831e-05 1.9867 -0.705365 1.35931 
0.0147656 0.00595313 1.93153 2.41172e+21 1.6038e-05 5.26131 0.711083 1.02805 
0.0158594 0.00585938 2.15662 2.49534e+21 1.6594e-05 -0.0822045 -0.669289 3.68989 
0.0169531 0.00595313 2.00876 2.44562e+21 1.62634e-05 -0.165923 -3.08804 -4.27541 
0.0103906 0.00885938 0 0 0 0 0 0 
0.0103906 0.00895312 0 0 0 0 0 0 
0.0333594 0.00285937 1.96538 2.46985e+21 1.64245e-05 0.921608 4.02016 -0.651894 
0.0344531 0.00285937 1.89553 2.44814e+21 1.62801e-05 5.47376 0.237478 2.17926 
0.0333594 0.00295313 1.91674 2.48605e+21 1.65322e-05 5.98914 -0.817691 0.245579 
0.0344531 0.00295313 1.82849 2.33889e+21 1.55536e-05 -4.15108 -1.82122 1.3198 
0.0202344 0.00473437 2.05132 2.49162e+21 1.65693e-05 -3.45665 -0.674783 -0.890041 
0.0213281 0.00473437 2.01919 2.38671e+21 1.58716e-05 3.38089 1.83644 2.10509 
0.0202344 0.00482812 1.99119 2.3918e+21 1.59055e-05 3.78343 -4.16995 1.60298 
0.0213281 0.00482812 2.01725 2.52682e+21 1.68034e-05 3.43238 1.57582 -5.08831 