ITEM: TIMESTEP
500000
ITEM: NUMBER OF CELLS
5962
ITEM: BOX BOUNDS oo ao pp
0 0.12
0 0.03
-0.1 0.1
ITEM: CELLS xc yc f_out[1] f_out[2] f_out[3] f_out[4] f_out[5] f_out[6] 
0.075 0.00075 0.984366 1.55854e+21 1.03643e-05 174.965 26.7197 0.732936 
0.081 0.00075 0.423835 3.27741e+20 2.17948e-06 188.485 18.3478 -0.0121952 
0.087 0.00075 0.37235 1.17893e+20 7.83985e-07 184.262 12.861 -0.518049 
0.093 0.00075 0.370635 1.01388e+20 6.74227e-07 191.229 9.58661 1.55329 
0.099 0.00075 0.269085 4.47992e+19 2.97914e-07 200.063 10.7969 -0.670951 
0.105 0.00075 0.330752 3.30099e+19 2.19516e-07 191.717 8.09458 1.30187 
0.111 0.00075 0.15507 1.17893e+19 7.83985e-08 178.495 0.15097 5.56401 
0.117 0.00075 0.104852 7.07355e+18 4.70391e-08 191.737 6.63032 -2.48639 
0.081 0.00225 0.498187 3.44246e+20 2.28924e-06 188.99 40.2555 0.815757 
0.087 0.00225 0.379268 1.55618e+20 1.03486e-06 195.123 26.5151 1.62773 
0.093 0.00225 0.321443 8.80264e+19 5.85376e-07 189.808 17.7548 -0.124796 
0.099 0.00225 0.228301 5.10868e+19 3.39727e-07 190.057 15.3769 0.803778 
0.105 0.00225 0.238504 2.98661e+19 1.9861e-07 204.706 14.3409 0.867843 
0.111 0.00225 0.1984 2.67223e+19 1.77703e-07 194.236 13.7096 -1.6615 
0.117 0.00225 0.319134 1.72909e+19 1.14985e-07 205.079 7.42484 0.221031 
0.003 0.00375 0 0 0 0 0 0 
0.009 0.00375 0 0 0 0 0 0 
0.015 0.00375 0 0 0 0 0 0 
0.021 0.00375 0 0 0 0 0 0 
0.081 0.00375 0.459072 2.98504e+20 1.98505e-06 179.058 56.9685 -0.405679 
0.087 0.00375 0.345159 1.40528e+20 9.34511e-07 185.689 40.0649 -0.0480827 
0.093 0.00375 0.357394 8.62973e+19 5.73877e-07 191.287 29.5054 0.594601 
0.099 0.00375 0.318016 4.90433e+19 3.26138e-07 196.595 26.5062 -1.40015 
0.105 0.00375 0.244429 3.63109e+19 2.41468e-07 192.333 20.1198 -2.99936 
0.111 0.00375 0.227204 2.26354e+19 1.50525e-07 195.377 18.1369 -0.896746 
0.117 0.00375 0.201478 1.6505e+19 1.09758e-07 205.068 16.7458 2.29036 
0.003 0.00525 0 0 0 0 0 0 
0.009 0.00525 0 0 0 0 0 0 
0.015 0.00525 0 0 0 0 0 0 
0.021 0.00525 0 0 0 0 0 0 
0.069 0.00525 1.00599 2.2283e+20 1.48182e-06 74.0659 131.441 0.0130981 
0.081 0.00525 0.438889 2.53301e+20 1.68445e-06 173.307 76.1115 0.0388703 
0.087 0.00525 0.370904 1.28671e+20 8.55664e-07 185.494 54.9704 0.101321 
0.093 0.00525 0.347749 8.4209e+19 5.5999e-07 185.546 42.664 0.851396 
0.099 0.00525 0.308516 5.28832e+19 3.51673e-07 191.52 33.1341 -0.854765 
0.105 0.00525 0.252174 3.26731e+19 2.17276e-07 197.275 29.042 -0.669597 
0.111 0.00525 0.316883 2.55995e+19 1.70237e-07 197.131 24.983 0.345843 
0.117 0.00525 0.296589 2.29048e+19 1.52317e-07 189.517 21.0974 -1.11982 
0.003 0.00675 0 0 0 0 0 0 
0.009 0.00675 0 0 0 0 0 0 
0.015 0.00675 0 0 0 0 0 0 
0.021 0.00675 0 0 0 0 0 0 
0.069 0.00675 0.931484 1.04793e+20 6.96876e-07 54.3001 139.68 -3.28592 
0.075 0.00675 0.6535 2.47312e+20 1.64463e-06 127.995 122.99 -0.469054 
0.081 0.00675 0.429558 1.90462e+20 1.26657e-06 166.133 90.3573 -0.0360377 
0.087 0.00675 0.373575 1.268e+20 8.4322e-07 179.368 67.9194 -0.0489358 
0.093 0.00675 0.32563 7.17835e+19 4.7736e-07 184.373 51.8104 0.842833 
0.099 0.00675 0.288719 4.84669e+19 3.22305e-07 193.649 41.7105 -0.515762 
0.105 0.00675 0.268793 3.0914e+19 2.05578e-07 193.389 34.4962 1.61181 
0.111 0.00675 0.244741 2.25306e+19 1.49828e-07 189.476 29.8523 -2.01995 
0.117 0.00675 0.282279 1.91248e+19 1.2718e-07 197.001 27.5255 -0.38371 
0.003 0.00825 0 0 0 0 0 0 
0.009 0.00825 0 0 0 0 0 0 
0.015 0.00825 0 0 0 0 0 0 
0.021 0.00825 0 0 0 0 0 0 
0.027 0.00825 0 0 0 0 0 0 
0.033 0.00825 0 0 0 0 0 0 
0.039 0.00825 0 0 0 0 0 0 
0.045 0.00825 0 0 0 0 0 0 
0.051 0.00825 0 0 0 0 0 0 
0.057 0.00825 0 0 0 0 0 0 
0.063 0.00825 0 0 0 0 0 0 
0.069 0.00825 0.722568 5.86989e+19 3.90348e-07 44.2752 148.482 1.52376 
0.075 0.00825 0.584562 1.54546e+20 1.02773e-06 115.222 133.083 0.0304361 
0.081 0.00825 0.469934 1.51546e+20 1.00778e-06 155.643 103.394 -0.0935497 
0.087 0.00825 0.382878 1.08461e+20 7.21267e-07 172.73 79.6845 0.924221 
0.093 0.00825 0.291936 6.62342e+19 4.40457e-07 179.482 62.0858 -0.751767 
0.099 0.00825 0.340447 5.16584e+19 3.43528e-07 191.309 52.5446 -0.446692 
0.105 0.00825 0.270228 3.08664e+19 2.05262e-07 187.137 42.0679 -1.83282 
0.111 0.00825 0.265431 2.67938e+19 1.78179e-07 191.973 38.6074 -0.0615438 
0.117 0.00825 0.294972 1.77911e+19 1.18311e-07 196.027 33.5749 -0.0976253 
0.003 0.00975 0 0 0 0 0 0 
0.009 0.00975 0 0 0 0 0 0 
0.015 0.00975 0 0 0 0 0 0 
0.021 0.00975 0 0 0 0 0 0 
0.027 0.00975 0 0 0 0 0 0 
0.033 0.00975 0 0 0 0 0 0 
0.039 0.00975 0 0 0 0 0 0 
0.045 0.00975 0 0 0 0 0 0 
0.051 0.00975 0 0 0 0 0 0 
0.057 0.00975 0 0 0 0 0 0 
0.063 0.00975 0 0 0 0 0 0 
0.069 0.00975 0.555168 2.26716e+19 1.50766e-07 28.9929 142.546 -1.18817 
0.075 0.00975 0.55388 9.30444e+19 6.18745e-07 100.86 138.246 0.477586 
0.081 0.00975 0.448602 1.14809e+20 7.63481e-07 142.596 111.148 0.511733 
0.087 0.00975 0.404467 9.4314e+19 6.27188e-07 166.746 89.9774 -0.216415 
0.093 0.00975 0.317588 6.54757e+19 4.35413e-07 181.809 73.9573 0.708509 
0.099 0.00975 0.313393 4.26227e+19 2.83441e-07 180.487 59.2954 0.0585721 
0.105 0.00975 0.324782 3.7907e+19 2.52081e-07 191.195 52.5729 0.102232 
0.111 0.00975 0.340699 2.5755e+19 1.71271e-07 187.879 43.1235 0.371806 
0.117 0.00975 0.302837 2.03138e+19 1.35087e-07 193.338 39.0618 1.03316 
0.003 0.01125 0 0 0 0 0 0 
0.009 0.01125 0 0 0 0 0 0 
0.015 0.01125 0 0 0 0 0 0 
0.021 0.01125 0 0 0 0 0 0 
0.027 0.01125 0 0 0 0 0 0 
0.033 0.01125 0 0 0 0 0 0 
0.039 0.01125 0 0 0 0 0 0 
0.045 0.01125 0 0 0 0 0 0 
0.051 0.01125 0 0 0 0 0 0 
0.057 0.01125 0 0 0 0 0 0 
0.063 0.01125 0 0 0 0 0 0 
0.069 0.01125 0.526562 1.36755e+19 9.09423e-08 24.5422 143.7 -0.609368 
0.075 0.01125 0.5627 6.38192e+19 4.24397e-07 93.8907 147.288 1.44762 
0.081 0.01125 0.461598 9.1799e+19 6.10463e-07 135.561 121.407 -0.27292 
0.087 0.01125 0.378051 8.14245e+19 5.41473e-07 163.161 99.8781 -0.276125 
0.093 0.01125 0.354937 5.87891e+19 3.90947e-07 171.599 81.7834 -0.48208 
0.099 0.01125 0.379332 4.44848e+19 2.95824e-07 181.312 68.9574 -0.531399 
0.105 0.01125 0.264381 3.26955e+19 2.17425e-07 186.6 57.9021 -1.44635 
0.111 0.01125 0.323943 2.60936e+19 1.73522e-07 193.631 51.7295 1.61249 
0.117 0.01125 0.312442 1.77625e+19 1.1812e-07 185.19 43.528 -0.206339 
0.003 0.01275 0 0 0 0 0 0 
0.009 0.01275 0 0 0 0 0 0 
0.015 0.01275 0 0 0 0 0 0 
0.021 0.01275 0 0 0 0 0 0 
0.027 0.01275 0 0 0 0 0 0 
0.033 0.01275 0 0 0 0 0 0 
0.039 0.01275 0 0 0 0 0 0 
0.045 0.01275 0 0 0 0 0 0 
0.051 0.01275 0 0 0 0 0 0 
0.057 0.01275 0 0 0 0 0 0 
0.063 0.01275 0 0 0 0 0 0 
0.069 0.01275 0.446616 1.15119e+19 7.65539e-08 20.89 153.469 -0.395612 
0.075 0.01275 0.549046 4.66022e+19 3.09905e-07 83.6847 150.681 -0.222058 
0.081 0.01275 0.411807 7.29547e+19 4.85149e-07 125.543 128.883 -0.298608 
0.087 0.01275 0.35872 6.75455e+19 4.49178e-07 154.819 107.188 0.801464 
0.093 0.01275 0.333958 5.42306e+19 3.60633e-07 169.332 90.2072 0.0737279 
0.099 0.01275 0.296513 4.29961e+19 2.85924e-07 178.913 75.0785 0.472547 
0.105 0.01275 0.315286 3.28712e+19 2.18594e-07 184.986 64.6144 0.132596 
0.111 0.01275 0.275694 2.30237e+19 1.53108e-07 188.94 57.4715 0.0255331 
0.117 0.01275 0.285894 2.02498e+19 1.34661e-07 191.617 51.0338 -0.0161512 
0.003 0.01425 0 0 0 0 0 0 
0.009 0.01425 0 0 0 0 0 0 
0.015 0.01425 0 0 0 0 0 0 
0.021 0.01425 0 0 0 0 0 0 
0.027 0.01425 0 0 0 0 0 0 
0.033 0.01425 0 0 0 0 0 0 
0.039 0.01425 0 0 0 0 0 0 
0.045 0.01425 0 0 0 0 0 0 
0.051 0.01425 0 0 0 0 0 0 
0.057 0.01425 0 0 0 0 0 0 
0.063 0.01425 0 0 0 0 0 0 
0.069 0.01425 0.455831 9.18321e+18 6.10683e-08 18.1999 143.179 -3.10913 
0.075 0.01425 0.541669 3.37545e+19 2.24467e-07 72.6827 144.673 0.528143 
0.081 0.01425 0.429594 5.31137e+19 3.53206e-07 118.806 137.853 0.435579 
0.087 0.01425 0.398928 5.67125e+19 3.77138e-07 147.152 114.317 0.167436 
0.093 0.01425 0.309785 4.65365e+19 3.09468e-07 161.617 94.5895 0.191768 
0.099 0.01425 0.299629 3.98353e+19 2.64905e-07 175.414 83.7244 -0.377787 
0.105 0.01425 0.290655 2.76737e+19 1.8403e-07 181.311 71.6853 -1.3467 
0.111 0.01425 0.295091 2.56882e+19 1.70826e-07 187.197 64.8685 0.0569722 
0.117 0.01425 0.291656 1.83664e+19 1.22137e-07 182.935 54.468 0.497904 
0.003 0.01575 0 0 0 0 0 0 
0.009 0.01575 0 0 0 0 0 0 
0.015 0.01575 0 0 0 0 0 0 
0.021 0.01575 0 0 0 0 0 0 
0.027 0.01575 0 0 0 0 0 0 
0.033 0.01575 0 0 0 0 0 0 
0.039 0.01575 0 0 0 0 0 0 
0.045 0.01575 0 0 0 0 0 0 
0.051 0.01575 0 0 0 0 0 0 
0.057 0.01575 0 0 0 0 0 0 
0.063 0.01575 0 0 0 0 0 0 
0.069 0.01575 0.753925 7.8595e+18 5.22657e-08 12.0311 155.046 2.02835 
0.075 0.01575 0.540057 2.42522e+19 1.61277e-07 69.4081 151.053 0.805075 
0.081 0.01575 0.364436 4.21045e+19 2.79995e-07 110.904 138.04 -1.01502 
0.087 0.01575 0.364167 4.52483e+19 3.00901e-07 140.925 120.979 0.612754 
0.093 0.01575 0.329742 3.86238e+19 2.56849e-07 158.996 104.825 -0.354253 
0.099 0.01575 0.317822 3.33467e+19 2.21756e-07 168.958 87.6437 0.738447 
0.105 0.01575 0.367132 2.5375e+19 1.68744e-07 181.462 79.5552 0.0085319 
0.111 0.01575 0.283626 2.14452e+19 1.42611e-07 184.894 69.6599 0.20896 
0.117 0.01575 0.285502 1.68418e+19 1.11998e-07 183.542 59.9173 -1.37657 
0.003 0.01725 0 0 0 0 0 0 
0.009 0.01725 0 0 0 0 0 0 
0.015 0.01725 0 0 0 0 0 0 
0.021 0.01725 0 0 0 0 0 0 
0.027 0.01725 0 0 0 0 0 0 
0.033 0.01725 0 0 0 0 0 0 
0.039 0.01725 0 0 0 0 0 0 
0.045 0.01725 0 0 0 0 0 0 
0.051 0.01725 0 0 0 0 0 0 
0.057 0.01725 0 0 0 0 0 0 
0.063 0.01725 0 0 0 0 0 0 
0.069 0.01725 0.544495 5.02325e+18 3.34046e-08 17.1594 152.772 1.47517 
0.075 0.01725 0.50726 1.86578e+19 1.24074e-07 58.7626 151.411 0.00298148 
0.081 0.01725 0.438024 3.31124e+19 2.20198e-07 103.496 140.704 -0.360546 
0.087 0.01725 0.395113 3.75206e+19 2.49512e-07 132.613 124.241 0.221627 
0.093 0.01725 0.392598 3.55728e+19 2.36559e-07 153.653 110.027 -0.193099 
0.099 0.01725 0.368526 2.92168e+19 1.94292e-07 165.29 95.2154 -0.195541 
0.105 0.01725 0.296071 2.84992e+19 1.8952e-07 171.624 82.9986 0.260343 
0.111 0.01725 0.277411 2.11181e+19 1.40436e-07 178.682 72.2735 0.264871 
0.117 0.01725 0.265476 1.6915e+19 1.12485e-07 181.08 64.0249 -0.526357 
0.003 0.01875 0 0 0 0 0 0 
0.009 0.01875 0 0 0 0 0 0 
0.015 0.01875 0 0 0 0 0 0 
0.021 0.01875 0 0 0 0 0 0 
0.027 0.01875 0 0 0 0 0 0 
0.033 0.01875 0 0 0 0 0 0 
0.039 0.01875 0 0 0 0 0 0 
0.045 0.01875 0 0 0 0 0 0 
0.051 0.01875 0 0 0 0 0 0 
0.057 0.01875 0 0 0 0 0 0 
0.063 0.01875 0 0 0 0 0 0 
0.069 0.01875 0.427881 4.81002e+18 3.19866e-08 7.27632 137.788 0.385569 
0.075 0.01875 0.440363 1.38642e+19 9.21967e-08 60.024 155.424 -1.45434 
0.081 0.01875 0.47364 2.49932e+19 1.66205e-07 94.6636 142.365 0.233261 
0.087 0.01875 0.364 3.17838e+19 2.11362e-07 127.838 130.293 0.561809 
0.093 0.01875 0.347472 3.10293e+19 2.06345e-07 150.996 116.999 0.531117 
0.099 0.01875 0.310543 2.34842e+19 1.5617e-07 160.3 101.517 -0.364677 
0.105 0.01875 0.297624 2.32013e+19 1.54288e-07 170.152 88.3729 -0.439299 
0.111 0.01875 0.299169 2.32013e+19 1.54288e-07 179.97 80.3709 0.574078 
0.117 0.01875 0.245363 1.52789e+19 1.01605e-07 182.629 71.139 -0.453379 
0.003 0.02025 0 0 0 0 0 0 
0.009 0.02025 0 0 0 0 0 0 
0.015 0.02025 0 0 0 0 0 0 
0.021 0.02025 0 0 0 0 0 0 
0.027 0.02025 0 0 0 0 0 0 
0.033 0.02025 0 0 0 0 0 0 
0.039 0.02025 0 0 0 0 0 0 
0.045 0.02025 0 0 0 0 0 0 
0.051 0.02025 0 0 0 0 0 0 
0.057 0.02025 0 0 0 0 0 0 
0.063 0.02025 0 8.73278e+16 5.8073e-10 -46.5947 134.584 -29.3486 
0.069 0.02025 0.554753 4.62837e+18 3.07787e-08 13.5825 156.319 -0.282016 
0.075 0.02025 0.498121 1.23132e+19 8.18829e-08 55.799 163.155 0.107352 
0.081 0.02025 0.422334 2.1832e+19 1.45182e-07 92.6363 150.623 0.169451 
0.087 0.02025 0.418045 2.59364e+19 1.72477e-07 125.503 138.151 0.135541 
0.093 0.02025 0.323933 2.76829e+19 1.84091e-07 144.626 119.958 0.539842 
0.099 0.02025 0.305532 2.36658e+19 1.57378e-07 155.012 103.781 -0.86389 
0.105 0.02025 0.327434 2.09587e+19 1.39375e-07 169.719 95.3382 -0.478632 
0.111 0.02025 0.344588 1.75529e+19 1.16727e-07 176.78 85.6535 0.854642 
0.117 0.02025 0.298325 1.6243e+19 1.08016e-07 181.032 75.9223 -0.484729 
0.003 0.02175 0 0 0 0 0 0 
0.009 0.02175 0 0 0 0 0 0 
0.015 0.02175 0 0 0 0 0 0 
0.021 0.02175 0 0 0 0 0 0 
0.027 0.02175 0 0 0 0 0 0 
0.033 0.02175 0 0 0 0 0 0 
0.039 0.02175 0 0 0 0 0 0 
0.045 0.02175 0 0 0 0 0 0 
0.051 0.02175 0 0 0 0 0 0 
0.057 0.02175 0 0 0 0 0 0 
0.063 0.02175 0 0 0 0 0 0 
0.069 0.02175 0.347774 2.92699e+18 1.94645e-08 7.01029 154.391 1.79501 
0.075 0.02175 0.500501 8.37444e+18 5.569e-08 44.7068 157.884 0.569044 
0.081 0.02175 0.474141 1.81311e+19 1.20572e-07 86.8342 146.191 -0.327237 
0.087 0.02175 0.365015 2.07328e+19 1.37873e-07 117.477 138.768 -0.644825 
0.093 0.02175 0.337978 2.78064e+19 1.84912e-07 138.146 123.997 0.305525 
0.099 0.02175 0.277048 2.2115e+19 1.47065e-07 152.186 108.949 0.54726 
0.105 0.02175 0.281196 2.14646e+19 1.42739e-07 164.032 100.316 0.447332 
0.111 0.02175 0.317274 1.88628e+19 1.25438e-07 168.689 87.718 -0.480713 
0.117 0.02175 0.261239 1.48789e+19 9.89444e-08 171.85 77.2497 -0.136524 
0.003 0.02325 0 0 0 0 0 0 
0.009 0.02325 0 0 0 0 0 0 
0.015 0.02325 0 0 0 0 0 0 
0.021 0.02325 0 0 0 0 0 0 
0.027 0.02325 0 0 0 0 0 0 
0.033 0.02325 0 0 0 0 0 0 
0.039 0.02325 0 0 0 0 0 0 
0.045 0.02325 0 0 0 0 0 0 
0.051 0.02325 0 0 0 0 0 0 
0.057 0.02325 0 0 0 0 0 0 
0.063 0.02325 0.377975 1.52119e+17 1.01159e-09 -28.876 128.688 0.674857 
0.069 0.02325 0.513171 3.19451e+18 2.12435e-08 6.66375 158.308 -1.09221 
0.075 0.02325 0.42183 6.69325e+18 4.45101e-08 43.2507 155.173 -0.320334 
0.081 0.02325 0.388379 1.31583e+19 8.75029e-08 81.6357 149.696 0.428205 
0.087 0.02325 0.354134 1.83304e+19 1.21897e-07 112.026 140.574 -0.0505161 
0.093 0.02325 0.362555 2.10685e+19 1.40106e-07 133.572 126.175 0.0905841 
0.099 0.02325 0.353361 1.68092e+19 1.11781e-07 154.944 120.197 0.0530292 
0.105 0.02325 0.327225 1.88628e+19 1.25438e-07 159.807 102.768 -0.17146 
0.111 0.02325 0.346459 1.49077e+19 9.91362e-08 170.441 94.8284 -0.0810744 
0.117 0.02325 0.30229 1.51359e+19 1.00654e-07 173.603 83.316 -0.15577 
0.003 0.02475 0 0 0 0 0 0 
0.009 0.02475 0 0 0 0 0 0 
0.015 0.02475 0 0 0 0 0 0 
0.021 0.02475 0 0 0 0 0 0 
0.027 0.02475 0 0 0 0 0 0 
0.033 0.02475 0 0 0 0 0 0 
0.039 0.02475 0 0 0 0 0 0 
0.045 0.02475 0 0 0 0 0 0 
0.051 0.02475 0 0 0 0 0 0 
0.057 0.02475 0 0 0 0 0 0 
0.063 0.02475 0.0924421 1.429e+17 9.50285e-10 -45.6403 134.983 -10.5377 
0.069 0.02475 0.29036 2.5722e+18 1.71051e-08 7.86718 147.752 0.863549 
0.075 0.02475 0.326131 5.78745e+18 3.84866e-08 41.1803 160.357 -0.898171 
0.081 0.02475 0.50861 1.18607e+19 7.88737e-08 80.0135 154.569 -0.290831 
0.087 0.02475 0.381319 1.58619e+19 1.05482e-07 105.199 139.798 -0.172871 
0.093 0.02475 0.324848 2.0006e+19 1.3304e-07 128.612 130.225 0.438222 
0.099 0.02475 0.313998 1.60048e+19 1.06432e-07 143.256 117.249 0.255275 
0.105 0.02475 0.362867 1.68622e+19 1.12134e-07 152.884 105.706 0.594983 
0.111 0.02475 0.346305 1.40757e+19 9.36031e-08 165.281 97.5626 0.188066 
0.117 0.02475 0.278278 1.40757e+19 9.36031e-08 173.777 89.4576 0.277761 
0.003 0.02625 0 0 0 0 0 0 
0.009 0.02625 0 0 0 0 0 0 
0.015 0.02625 0 0 0 0 0 0 
0.021 0.02625 0 0 0 0 0 0 
0.027 0.02625 0 0 0 0 0 0 
0.033 0.02625 0 0 0 0 0 0 
0.039 0.02625 0 0 0 0 0 0 
0.045 0.02625 0 0 0 0 0 0 
0.051 0.02625 0 0 0 0 0 0 
0.057 0.02625 0 0 0 0 0 0 
0.063 0.02625 0.388926 1.34734e+17 8.95983e-10 -28.3853 110.977 11.5465 
0.069 0.02625 0.535919 2.35785e+18 1.56797e-08 3.85945 153.62 -1.89527 
0.075 0.02625 0.424825 5.32201e+18 3.53913e-08 41.5442 164.164 -0.338076 
0.081 0.02625 0.457885 9.0272e+18 6.00309e-08 75.1378 155.399 0.645776 
0.087 0.02625 0.375522 1.44166e+19 9.58702e-08 106.257 149.067 -0.254652 
0.093 0.02625 0.294854 1.44166e+19 9.58702e-08 122.93 133.937 0.260543 
0.099 0.02625 0.379919 1.71786e+19 1.14238e-07 141.015 123.022 -0.59159 
0.105 0.02625 0.321375 1.52923e+19 1.01694e-07 157.294 113.061 -0.312758 
0.111 0.02625 0.297141 1.48881e+19 9.90062e-08 162.346 101.797 0.326618 
0.117 0.02625 0.307216 1.23956e+19 8.24305e-08 173.899 95.8001 -0.789775 
0.003 0.02775 0 0 0 0 0 0 
0.009 0.02775 0 0 0 0 0 0 
0.015 0.02775 0 0 0 0 0 0 
0.021 0.02775 0 0 0 0 0 0 
0.027 0.02775 0 0 0 0 0 0 
0.033 0.02775 0 0 0 0 0 0 
0.039 0.02775 0 0 0 0 0 0 
0.045 0.02775 0 0 0 0 0 0 
0.051 0.02775 0 0 0 0 0 0 
0.057 0.02775 0 0 0 0 0 0 
0.063 0.02775 0 0 0 0 0 0 
0.069 0.02775 0.320361 2.93138e+18 1.94937e-08 4.18205 135.045 -0.651494 
0.075 0.02775 0.508806 5.73531e+18 3.81398e-08 37.9463 159.995 0.351707 
0.081 0.02775 0.490545 7.71081e+18 5.12769e-08 72.321 155.744 -0.879279 
0.087 0.02775 0.418695 1.12157e+19 7.45846e-08 95.6387 143.259 -0.293719 
0.093 0.02775 0.365247 1.34461e+19 8.94167e-08 120.51 136.449 -0.808273 
0.099 0.02775 0.338892 1.50393e+19 1.00011e-07 138.124 127.786 -0.7603 
0.105 0.02775 0.334203 1.48481e+19 9.87398e-08 151.086 115.736 -0.313159 
0.111 0.02775 0.373196 1.19167e+19 7.92461e-08 162.433 106.966 0.114415 
0.117 0.02775 0.278607 1.1853e+19 7.88223e-08 166.353 97.0718 -0.347462 
0.003 0.02925 0 0 0 0 0 0 
0.009 0.02925 0 0 0 0 0 0 
0.015 0.02925 0 0 0 0 0 0 
0.021 0.02925 0 0 0 0 0 0 
0.027 0.02925 0 0 0 0 0 0 
0.033 0.02925 0 0 0 0 0 0 
0.039 0.02925 0 0 0 0 0 0 
0.045 0.02925 0 0 0 0 0 0 
0.051 0.02925 0 0 0 0 0 0 
0.057 0.02925 0 0 0 0 0 0 
0.063 0.02925 -2.83802e-16 6.04577e+16 4.02044e-10 -29.8541 91.8378 -11.3657 
0.069 0.02925 0.307429 1.93465e+18 1.28654e-08 2.73615 153.189 -0.315515 
0.075 0.02925 0.322183 3.86929e+18 2.57308e-08 33.6767 151.083 -0.636439 
0.081 0.02925 0.421565 6.83172e+18 4.5431e-08 68.3934 157.709 1.49452 
0.087 0.02925 0.30286 1.10638e+19 7.3574e-08 92.753 151.751 0.66557 
0.093 0.02925 0.381141 1.33007e+19 8.84496e-08 115.723 138.933 -0.828633 
0.099 0.02925 0.33219 1.30589e+19 8.68415e-08 133.012 128.617 -0.266761 
0.105 0.02925 0.316584 1.26961e+19 8.44292e-08 145.618 116.477 -0.576881 
0.111 0.02925 0.286447 1.25147e+19 8.32231e-08 154.852 108.351 0.469769 
0.117 0.02925 0.286374 1.20311e+19 8.00067e-08 163.525 99.1805 -0.433367 
0.0015 0.000375 0 0 0 0 0 0 
0.0015 0.001125 0 0 0 0 0 0 
0.0015 0.001875 0 0 0 0 0 0 
0.0015 0.002625 0 0 0 0 0 0 
0.0045 0.002625 0 0 0 0 0 0 
0.0075 0.002625 0 0 0 0 0 0 
0.0105 0.002625 0 0 0 0 0 0 
0.0135 0.002625 0 0 0 0 0 0 
0.0165 0.002625 0 0 0 0 0 0 
0.0195 0.002625 0 0 0 0 0 0 
0.0225 0.002625 0 0 0 0 0 0 
0.0645 0.002625 4.12713 4.56749e+22 0.000303738 1.52374 5.02596 1.78133 
0.0675 0.002625 2.11421 1.4192e+21 9.43769e-06 60.999 104.527 -6.40115 
0.0705 0.002625 1.24105 1.74616e+21 1.16119e-05 130.531 97.3909 -0.400972 
0.0645 0.003375 4.05743 4.79115e+22 0.000318612 3.10749 5.74583 4.1008 
0.0645 0.004125 4.05127 4.72771e+22 0.000314392 2.86368 -2.60748 0.51215 
0.0255 0.007125 0 0 0 0 0 0 
0.0285 0.007125 0 0 0 0 0 0 
0.0315 0.007125 0 0 0 0 0 0 
0.0345 0.007125 0 0 0 0 0 0 
0.0375 0.007125 0 0 0 0 0 0 
0.0405 0.007125 0 0 0 0 0 0 
0.0435 0.007125 0 0 0 0 0 0 
0.0465 0.007125 0 0 0 0 0 0 
0.0495 0.007125 0 0 0 0 0 0 
0.0525 0.007125 0 0 0 0 0 0 
0.0555 0.007125 0 0 0 0 0 0 
0.0585 0.007125 0 0 0 0 0 0 
0.0645 0.006375 4.22177 4.79398e+22 0.0003188 7.48933 -7.31353 6.30482 
0.0615 0.007125 0 0 0 0 0 0 
0.0645 0.007125 0 0 0 0 0 0 
0.0705 0.000375 1.76624 6.63971e+21 4.41541e-05 144.141 15.2187 -1.59537 
0.0705 0.001125 1.82549 5.95436e+21 3.95965e-05 147.613 35.1501 -0.627412 
0.00375 0.0001875 0 0 0 0 0 0 
0.00525 0.0001875 3.98491 1.10913e+23 0.000737574 16.4833 8.3334 3.74616 
0.00375 0.0005625 0 0 0 0 0 0 
0.00375 0.0009375 0 0 0 0 0 0 
0.00375 0.0013125 0 0 0 0 0 0 
0.00675 0.0001875 4.04821 9.98974e+22 0.000664318 19.2275 -0.674922 4.23912 
0.00825 0.0001875 4.14524 9.94447e+22 0.000661307 21.4701 -4.07845 1.0522 
0.00975 0.0001875 3.78424 9.15978e+22 0.000609125 32.6131 -4.0719 -0.279371 
0.01125 0.0001875 3.80454 8.70707e+22 0.00057902 28.54 1.75143 5.88855 
0.01275 0.0001875 3.85909 8.84288e+22 0.000588052 28.5022 -0.469421 -3.95347 
0.01425 0.0001875 3.93302 8.05819e+22 0.00053587 30.5319 6.71618 3.59696 
0.01575 0.0001875 3.78366 8.07328e+22 0.000536873 32.4104 1.84923 5.72839 
0.01725 0.0001875 3.81732 8.0431e+22 0.000534866 39.1374 4.40308 4.01714 
0.01875 0.0001875 3.73091 7.21314e+22 0.000479674 41.8221 -0.0493726 -1.78703 
0.02025 0.0001875 3.85168 6.86606e+22 0.000456593 41.6737 0.567776 -1.69049 
0.02175 0.0001875 3.803 6.73025e+22 0.000447562 40.7211 -3.56779 -4.97392 
0.02325 0.0001875 3.87381 5.82484e+22 0.000387352 40.8347 5.53904 1.43915 
0.02475 0.0001875 3.88964 5.47776e+22 0.000364271 42.7319 -6.62547 -7.61646 
0.02625 0.0001875 3.87534 5.5683e+22 0.000370292 43.583 4.61598 2.45529 
0.02775 0.0001875 3.73951 5.04014e+22 0.000335169 23.1334 4.3533 0.552474 
0.02925 0.0001875 3.71931 4.75343e+22 0.000316103 21.2742 -3.10939 4.57879 
0.02925 0.0005625 4.08464 4.91942e+22 0.000327141 22.934 2.87447 1.51068 
0.03075 0.0001875 3.75665 4.69307e+22 0.000312089 20.5816 -6.74949 -0.309865 
0.03225 0.0001875 4.02795 4.69307e+22 0.000312089 26.1475 4.58607 5.88321 
0.03225 0.0005625 3.96603 4.66792e+22 0.000310416 14.0927 -6.29475 3.59006 
0.03375 0.0001875 4.15452 5.31177e+22 0.000353232 -1.2984 5.37051 7.14673 
0.03525 0.0001875 4.15797 4.96469e+22 0.000330152 12.8463 2.34745 -0.763494 
0.03375 0.0005625 4.0623 4.92445e+22 0.000327476 13.1587 -0.508452 -2.13473 
0.03675 0.0001875 4.22222 5.1005e+22 0.000339183 12.4819 -2.09424 -0.31396 
0.03825 0.0001875 4.24063 4.7987e+22 0.000319113 4.27329 -4.61826 8.67452 
0.03825 0.0005625 3.97632 4.71822e+22 0.000313761 5.28083 1.38629 3.6793 
0.03975 0.0001875 3.96989 4.07437e+22 0.000270945 11.1275 3.039 -4.20278 
0.04125 0.0001875 3.99305 4.36108e+22 0.000290012 2.26919 -6.91677 -2.62755 
0.03975 0.0005625 3.97712 5.02002e+22 0.000333831 5.87143 -2.22482 7.03707 
0.04125 0.0005625 3.98842 4.76852e+22 0.000317106 6.18099 2.04111 -0.677853 
0.04575 0.0001875 4.13707 4.75343e+22 0.000316103 9.55342 1.37257 -0.601654 
0.04725 0.0001875 3.94908 4.69307e+22 0.000312089 16.5652 5.05934 -8.99958 
0.04575 0.0005625 3.99344 4.72828e+22 0.00031443 6.41865 -4.43341 1.03813 
0.04725 0.0005625 4.18103 5.02002e+22 0.000333831 1.5519 -4.8571 0.405123 
0.04875 0.0001875 4.19466 5.28159e+22 0.000351225 1.5225 2.22166 -2.2726 
0.05025 0.0001875 4.22862 4.81379e+22 0.000320117 4.18897 0.537458 6.5451 
0.04875 0.0005625 3.92396 4.68301e+22 0.00031142 3.92958 1.15693 1.1854 
0.05025 0.0005625 3.96618 4.7484e+22 0.000315768 6.42599 -0.605034 -3.49897 
0.05175 0.0001875 4.04927 4.73834e+22 0.000315099 10.3078 -0.191406 4.39937 
0.05325 0.0001875 3.96387 5.05523e+22 0.000336173 6.83488 2.70603 -6.38915 
0.05325 0.0005625 4.03606 4.88421e+22 0.0003248 7.48583 -2.78282 -1.10507 
0.05475 0.0001875 3.96942 5.08541e+22 0.00033818 10.9385 -0.154545 0.046266 
0.05625 0.0001875 3.94791 4.82888e+22 0.00032112 1.09606 1.86973 4.43881 
0.05475 0.0005625 4.09097 4.56228e+22 0.000303392 11.0047 -2.99748 -4.22125 
0.05625 0.0005625 4.01627 4.67295e+22 0.000310751 7.96297 2.18042 0.929853 
0.05775 0.0001875 3.80839 4.21018e+22 0.000279977 12.7711 8.52555 -6.07407 
0.05925 0.0001875 3.90175 4.51198e+22 0.000300047 8.63808 0.723229 0.38613 
0.05775 0.0005625 4.08595 4.85906e+22 0.000323127 9.42828 -4.51871 0.970944 
0.05925 0.0005625 4.13484 4.61762e+22 0.000307071 11.6531 3.63243 -2.2213 
0.06075 0.0001875 4.37 4.63271e+22 0.000308075 16.4614 3.2273 1.74836 
0.06225 0.0001875 4.04603 4.43653e+22 0.000295029 36.0428 -0.2434 6.6146 
0.06225 0.0005625 3.90379 4.59247e+22 0.000305399 36.3747 1.51057 3.0456 
0.06375 0.0001875 3.91046 3.51603e+22 0.000233816 68.475 -0.149673 -6.54354 
0.06525 0.0001875 3.50239 3.21422e+22 0.000213746 70.6663 6.87037 2.77267 
0.06375 0.0005625 4.08313 3.97879e+22 0.00026459 53.0972 -4.38411 0.075494 
0.06525 0.0005625 3.39992 3.35003e+22 0.000222777 73.6192 0.232071 -0.501273 
0.00375 0.0016875 0 0 0 0 0 0 
0.00375 0.0020625 0 0 0 0 0 0 
0.06525 0.0020625 3.8661 2.90463e+22 0.000193158 11.249 -0.219829 2.50316 
0.06825 0.0016875 2.9964 1.32123e+22 8.78621e-05 93.693 23.8919 -1.15646 
0.06675 0.0020625 3.76186 2.08099e+22 0.000138386 27.9741 -0.886375 1.36878 
0.06825 0.0020625 3.27129 7.6418e+21 5.0818e-05 73.2452 41.4935 -5.91511 
0.02475 0.0065625 0 0 0 0 0 0 
0.02625 0.0065625 0 0 0 0 0 0 
0.02775 0.0065625 0 0 0 0 0 0 
0.02925 0.0065625 0 0 0 0 0 0 
0.03075 0.0065625 0 0 0 0 0 0 
0.03225 0.0065625 0 0 0 0 0 0 
0.03375 0.0065625 0 0 0 0 0 0 
0.03525 0.0065625 0 0 0 0 0 0 
0.03675 0.0065625 0 0 0 0 0 0 
0.03825 0.0065625 0 0 0 0 0 0 
0.03975 0.0065625 0 0 0 0 0 0 
0.04125 0.0065625 0 0 0 0 0 0 
0.04275 0.0065625 0 0 0 0 0 0 
0.04425 0.0065625 0 0 0 0 0 0 
0.04575 0.0065625 0 0 0 0 0 0 
0.04725 0.0065625 0 0 0 0 0 0 
0.04875 0.0065625 0 0 0 0 0 0 
0.05025 0.0065625 0 0 0 0 0 0 
0.05175 0.0065625 0 0 0 0 0 0 
0.05325 0.0065625 0 0 0 0 0 0 
0.05475 0.0065625 0 0 0 0 0 0 
0.05625 0.0065625 0 0 0 0 0 0 
0.05775 0.0065625 0 0 0 0 0 0 
0.05925 0.0065625 0 0 0 0 0 0 
0.06075 0.0065625 0 0 0 0 0 0 
0.06225 0.0065625 0 0 0 0 0 0 
0.0735 0.004875 0.694799 4.81727e+20 3.20349e-06 132.79 112.734 -0.886431 
0.0765 0.004875 0.537821 4.06276e+20 2.70173e-06 154.698 91.2882 -2.3929 
0.0735 0.005625 0.677056 3.65938e+20 2.43349e-06 125.234 123.569 -0.641462 
0.0765 0.005625 0.494889 3.37016e+20 2.24115e-06 153.707 100.872 -0.749905 
0.04275 0.0001875 3.97085 4.72325e+22 0.000314096 10.6199 1.02487 1.25368 
0.04425 0.0001875 4.02933 5.23632e+22 0.000348215 9.30113 0.528085 4.18299 
0.04275 0.0005625 4.01107 4.75846e+22 0.000316437 8.31207 4.74001 -1.6919 
0.04425 0.0005625 4.14642 4.70816e+22 0.000313092 4.78164 1.24246 1.10422 
0.06675 0.0009375 3.49769 2.26957e+22 0.000150927 81.3093 1.85063 6.34075 
0.06825 0.0009375 2.67922 1.5543e+22 0.000103361 111.603 12.7529 6.50152 
0.06825 0.0013125 3.13639 1.43573e+22 9.5476e-05 103.299 12.5225 2.39084 
0.004875 0.00084375 3.62087 1.11467e+23 0.000741253 12.6115 -14.4303 7.03288 
0.005625 0.00084375 3.93893 1.03553e+23 0.000688625 13.6982 -6.36608 -0.0302876 
0.004875 0.00103125 3.93452 1.07991e+23 0.000718142 26.0872 -0.43295 -11.2587 
0.005625 0.00103125 3.95683 1.03711e+23 0.000689679 19.8924 -2.33817 -2.34314 
0.004875 0.00121875 3.61732 1.05585e+23 0.000702142 17.7002 -5.59801 -5.47168 
0.004875 0.00140625 4.06248 1.11789e+23 0.000743394 10.9849 -7.79961 -7.67663 
0.006375 0.00046875 4.18986 9.4646e+22 0.000629396 19.6259 -4.0496 0.855484 
0.007125 0.00046875 3.87621 9.94749e+22 0.000661508 23.2904 -0.503345 -0.535462 
0.006375 0.00065625 3.93377 1.01234e+23 0.000673206 19.7531 -1.58502 -0.425273 
0.007125 0.00065625 3.91812 9.81297e+22 0.000652563 21.9958 0.213165 -3.44106 
0.007875 0.00046875 3.86863 8.8127e+22 0.000586045 20.715 1.92359 -1.2944 
0.008625 0.00046875 3.94751 9.70605e+22 0.000645452 24.958 -7.08426 6.35795 
0.007875 0.00065625 3.9244 1.01579e+23 0.0006755 31.0673 -0.812019 -0.491795 
0.008625 0.00065625 3.90326 9.24385e+22 0.000614716 23.5857 5.38629 -6.70029 
0.009375 0.00046875 3.93919 9.58532e+22 0.000637424 21.2555 6.02841 4.53808 
0.010125 0.00046875 3.91731 9.17487e+22 0.000610129 22.0411 3.13512 -1.06044 
0.009375 0.00065625 3.8362 8.95067e+22 0.00059522 20.7096 -2.63119 -2.71224 
0.010125 0.00065625 3.99607 9.22661e+22 0.000613569 25.8579 3.41239 1.89599 
0.010875 0.00046875 3.87525 8.90928e+22 0.000592467 28.3041 2.89869 5.4394 
0.011625 0.00046875 3.62715 7.26746e+22 0.000483286 28.6655 1.24743 -1.64776 
0.010875 0.00065625 4.11402 8.8127e+22 0.000586045 30.2408 0.19256 7.07136 
0.011625 0.00065625 3.95702 9.43356e+22 0.000627332 25.0918 -2.78761 -1.95676 
0.006375 0.00084375 4.11797 9.8992e+22 0.000658297 15.0423 -1.36879 -3.16154 
0.007125 0.00084375 3.77832 9.8992e+22 0.000658297 22.1444 1.19916 -5.34911 
0.007125 0.00103125 3.89645 1.00858e+23 0.000670704 19.5891 -2.22032 1.3699 
0.007875 0.00084375 3.85406 9.96627e+22 0.000662757 33.1715 -0.632288 1.12647 
0.008625 0.00084375 4.11905 9.28218e+22 0.000617265 26.4606 2.61208 -1.14344 
0.008625 0.00103125 3.8399 9.87725e+22 0.000656837 19.3691 1.24205 3.05015 
0.007125 0.00121875 3.9249 1.05864e+23 0.000703995 21.3128 4.28564 2.25156 
0.008625 0.00121875 3.98999 9.99206e+22 0.000664472 21.9474 -2.84363 -0.543924 
0.009375 0.00084375 4.0666 1.00736e+23 0.000669893 27.5375 5.29644 -0.543244 
0.010125 0.00084375 3.96491 9.21511e+22 0.000612805 21.7346 3.62752 3.36283 
0.009375 0.00103125 4.01966 8.87855e+22 0.000590424 18.4269 3.30982 1.054 
0.010125 0.00103125 4.03668 8.72491e+22 0.000580206 26.8225 -0.473475 -0.366101 
0.010875 0.00084375 3.77995 9.44314e+22 0.000627969 23.816 -9.13947 2.71836 
0.011625 0.00084375 3.74918 8.97367e+22 0.000596749 31.7759 -0.352901 -0.663347 
0.010875 0.00103125 4.03971 9.01025e+22 0.000599182 26.1787 0.459701 -3.21535 
0.011625 0.00103125 3.89853 9.41631e+22 0.000626185 22.8034 -6.3468 3.07409 
0.009375 0.00121875 3.97791 9.11915e+22 0.000606424 22.0063 3.10092 0.539282 
0.010125 0.00121875 4.03672 9.49989e+22 0.000631743 23.9379 4.9751 3.92122 
0.010875 0.00121875 3.84942 8.93343e+22 0.000594073 19.5874 3.05043 2.88594 
0.011625 0.00121875 3.80105 8.93343e+22 0.000594073 23.6881 0.68643 3.5141 
0.011625 0.00140625 3.95289 8.56321e+22 0.000569454 12.2708 -0.653715 -0.719174 
0.012375 0.00046875 4.10046 9.34388e+22 0.000621368 27.1841 4.50825 1.5993 
0.013125 0.00046875 4.15037 8.16081e+22 0.000542694 27.2185 -8.19118 1.19465 
0.012375 0.00065625 3.82204 8.70923e+22 0.000579164 27.1147 -3.7083 0.324029 
0.013125 0.00065625 3.94699 8.79546e+22 0.000584898 24.8937 0.677759 2.68123 
0.013875 0.00046875 3.84913 8.28153e+22 0.000550722 31.3276 2.39285 3.02192 
0.014625 0.00046875 3.75632 7.72621e+22 0.000513793 27.9778 5.3815 2.83487 
0.013875 0.00065625 3.97898 8.08837e+22 0.000537877 28.7372 -8.00408 -7.42396 
0.014625 0.00065625 3.92716 8.29532e+22 0.000551639 25.4419 -3.34704 11.3758 
0.012375 0.00084375 3.90334 8.8127e+22 0.000586045 24.4356 -2.18137 -1.57227 
0.013125 0.00084375 3.83556 8.71881e+22 0.000579801 23.5178 -0.917012 1.21563 
0.012375 0.00103125 4.04504 9.06512e+22 0.000602831 17.9046 -0.948879 0.807783 
0.013125 0.00103125 3.87956 7.89083e+22 0.00052474 21.0709 -0.538339 -7.53543 
0.013875 0.00084375 3.95208 7.57866e+22 0.000503981 26.5446 -2.51445 0.152629 