ITEM: TIMESTEP
500000
ITEM: NUMBER OF CELLS
36326
ITEM: BOX BOUNDS oo ao pp
0 0.35
0 0.03
-0.1 0.1
ITEM: CELLS xc yc f_out[1] f_out[2] f_out[3] f_out[4] f_out[5] f_out[6] 
0.00875 0.01875 0 0 0 0 0 0 
0.00875 0.02475 0 0 0 0 0 0 
0.00875 0.01425 0 0 0 0 0 0 
0.00875 0.02025 0 0 0 0 0 0 
0.00875 0.02625 0 0 0 0 0 0 
0.00875 0.01575 0 0 0 0 0 0 
0.00875 0.02175 0 0 0 0 0 0 
0.00875 0.02775 0 0 0 0 0 0 
0.00875 0.01725 0 0 0 0 0 0 
0.00875 0.02325 0 0 0 0 0 0 
0.00875 0.02925 0 0 0 0 0 0 
0.02625 0.02325 0 0 0 0 0 0 
0.02625 0.02925 0 0 0 0 0 0 
0.004375 0.013125 0 0 0 0 0 0 
0.013125 0.013125 0 0 0 0 0 0 
0.0021875 0.0001875 1.95699 1.31077e+22 8.71661e-05 30.6269 -2.32401 -1.08775 
0.0021875 0.0061875 0 0 0 0 0 0 
0.0021875 0.0065625 0 0 0 0 0 0 
0.0021875 0.0069375 0 0 0 0 0 0 
0.0021875 0.0073125 0 0 0 0 0 0 
0.0021875 0.0121875 0 0 0 0 0 0 
0.0021875 0.0125625 0 0 0 0 0 0 
0.0021875 0.0020625 0 0 0 0 0 0 
0.0021875 0.0024375 0 0 0 0 0 0 
0.0021875 0.0028125 0 0 0 0 0 0 
0.0021875 0.0076875 0 0 0 0 0 0 
0.0021875 0.0080625 0 0 0 0 0 0 
0.0021875 0.0084375 0 0 0 0 0 0 
0.0021875 0.0088125 0 0 0 0 0 0 
0.0021875 0.0031875 0 0 0 0 0 0 
0.0021875 0.0035625 0 0 0 0 0 0 
0.0021875 0.0039375 0 0 0 0 0 0 
0.0021875 0.0043125 0 0 0 0 0 0 
0.0021875 0.0091875 0 0 0 0 0 0 
0.0021875 0.0095625 0 0 0 0 0 0 
0.0021875 0.0099375 0 0 0 0 0 0 
0.0021875 0.0103125 0 0 0 0 0 0 
0.0021875 0.0046875 0 0 0 0 0 0 
0.0021875 0.0050625 0 0 0 0 0 0 
0.0021875 0.0054375 0 0 0 0 0 0 
0.0021875 0.0058125 0 0 0 0 0 0 
0.0021875 0.0106875 0 0 0 0 0 0 
0.0021875 0.0110625 0 0 0 0 0 0 
0.0021875 0.0114375 0 0 0 0 0 0 
0.0021875 0.0118125 0 0 0 0 0 0 
0.00109375 0.00046875 0 0 0 0 0 0 
0.00109375 0.00065625 0 0 0 0 0 0 
0.00765625 0.00046875 1.96499 5.2483e+21 3.49012e-05 46.3678 4.62744 0.0546143 
0.00765625 0.00065625 1.82664 5.3571e+21 3.56247e-05 43.7661 7.35374 0.805622 
0.00109375 0.00084375 0 0 0 0 0 0 
0.00109375 0.00103125 0 0 0 0 0 0 
0.00109375 0.00121875 0 0 0 0 0 0 
0.00109375 0.00140625 0 0 0 0 0 0 
0.00546875 0.00609375 1.91494 3.02187e+21 2.00955e-05 -1.22487 7.31079 1.91115 
0.00546875 0.00628125 2.06378 3.28779e+21 2.18638e-05 0.236286 4.31874 -4.70366 
0.00546875 0.00646875 1.95737 3.38392e+21 2.25031e-05 -1.94025 6.14782 -0.23923 
0.00546875 0.00665625 1.90499 3.08456e+21 2.05123e-05 0.381458 1.41646 0.0897359 
0.0120312 0.00609375 1.86993 2.63185e+21 1.75018e-05 -4.70216 -0.971918 0.22551 
0.0120312 0.00628125 1.89556 2.40384e+21 1.59855e-05 4.11422 0.54912 0.617378 
0.0120312 0.00646875 1.96712 2.55955e+21 1.7021e-05 -4.01354 -3.80967 -3.66403 
0.0120312 0.00665625 1.95646 2.52346e+21 1.6781e-05 -0.705753 3.46096 0.688784 
0.00546875 0.00684375 1.97758 2.98254e+21 1.98339e-05 2.36427 5.88556 -0.936399 
0.00546875 0.00703125 1.84856 3.20978e+21 2.13451e-05 2.49311 1.25963 1.8548 
0.00546875 0.00721875 1.93748 3.05448e+21 2.03123e-05 1.75625 2.3405 -0.813981 
0.00546875 0.00740625 1.92202 3.11198e+21 2.06947e-05 -2.24476 1.81595 -2.01748 
0.0120312 0.00684375 1.94264 2.30549e+21 1.53315e-05 0.827331 -1.10123 0.120073 
0.0120312 0.00703125 2.03384 2.43716e+21 1.62071e-05 1.6141 2.25678 0.904273 
0.0120312 0.00721875 2.03966 2.49283e+21 1.65773e-05 -2.38448 -0.216172 -1.51646 
0.00546875 0.0120938 1.95155 2.84712e+21 1.89334e-05 0.886262 0.112232 -1.68851 
0.00546875 0.0124688 1.94163 3.0306e+21 2.01535e-05 -2.72143 -1.81702 -0.109631 
0.00546875 0.0126563 1.88927 2.82026e+21 1.87548e-05 3.32906 1.49823 -0.344004 
0.00546875 0.00178125 1.84062 2.93769e+21 1.95357e-05 1.3091 18.2183 -9.97328 
0.00546875 0.00196875 1.89395 3.51007e+21 2.33419e-05 4.37866 11.9994 -3.80885 
0.00546875 0.00215625 1.90591 3.03812e+21 2.02035e-05 -7.96666 9.32318 -9.70241 
0.00546875 0.00234375 1.95527 3.28932e+21 2.1874e-05 5.26058 6.4635 3.71372 
0.00546875 0.00253125 2.05206 2.9352e+21 1.95191e-05 -5.50145 -2.50526 0.0730513 
0.00546875 0.00271875 2.01698 3.23231e+21 2.14949e-05 -0.381032 -5.22888 7.25526 
0.00546875 0.00290625 1.8738 3.32615e+21 2.21189e-05 -7.79952 7.41212 5.11446 
0.00546875 0.00759375 2.01574 3.17191e+21 2.10932e-05 -2.99048 -0.72432 4.75722 
0.00546875 0.00778125 2.07758 3.17248e+21 2.1097e-05 0.925577 4.21723 0.516729 
0.00546875 0.00796875 2.04041 3.04771e+21 2.02673e-05 0.346996 1.74672 -4.33213 
0.00546875 0.00815625 2.18122 3.10498e+21 2.06481e-05 0.946109 -0.17759 0.167383 
0.0120312 0.00759375 2.08397 2.59066e+21 1.72279e-05 -1.58632 1.27096 -0.572569 
0.0120312 0.00778125 1.92304 2.4461e+21 1.62665e-05 3.89756 0.299724 1.24814 
0.0120312 0.00796875 1.94021 2.4111e+21 1.60338e-05 3.12956 -1.59304 4.16361 
0.00546875 0.00834375 1.92072 3.13574e+21 2.08527e-05 -2.31472 1.54468 2.69857 
0.00546875 0.00853125 1.94335 3.06682e+21 2.03944e-05 2.94966 2.70945 1.89689 
0.00546875 0.00871875 2.027 3.04668e+21 2.02604e-05 3.27699 1.51308 -1.31818 
0.00546875 0.00890625 1.98428 3.03188e+21 2.0162e-05 -4.04943 6.06044 -2.7765 
0.0120312 0.00890625 1.95799 2.53404e+21 1.68514e-05 2.49819 -1.78366 -0.729763 
0.00546875 0.00309375 1.91273 3.22786e+21 2.14653e-05 -0.104888 -2.27065 -3.69137 
0.00546875 0.00328125 1.90699 3.71296e+21 2.46912e-05 3.90894 2.61401 2.58369 
0.00546875 0.00346875 1.84662 2.92496e+21 1.9451e-05 -4.37436 0.458626 -0.902322 
0.00546875 0.00365625 2.00873 3.60527e+21 2.39751e-05 -4.71814 4.42964 -3.65756 
0.0120312 0.00309375 1.96117 2.82761e+21 1.88036e-05 1.12803 3.41591 -1.26524 
0.0120312 0.00328125 1.93242 2.7269e+21 1.81339e-05 0.345671 -4.11985 2.64925 
0.0120312 0.00346875 2.00977 2.50465e+21 1.66559e-05 -4.99975 2.37128 0.840647 
0.0120312 0.00365625 2.09485 2.35981e+21 1.56928e-05 -4.63922 0.637124 -1.28867 
0.00546875 0.00384375 2.0471 3.3047e+21 2.19762e-05 -3.29563 2.93949 5.04733 
0.00546875 0.00403125 2.08758 3.42844e+21 2.27991e-05 -6.08169 1.70911 -3.73209 
0.00546875 0.00421875 2.06026 3.54118e+21 2.35488e-05 1.9332 4.87618 -3.1637 
0.00546875 0.00440625 2.00895 3.37236e+21 2.24262e-05 -4.26665 5.73755 -0.0512231 
0.00984375 0.00384375 1.98496 3.36912e+21 2.24046e-05 -0.72654 9.43094 -1.57905 
0.0120312 0.00384375 1.90923 2.5045e+21 1.6655e-05 -2.97264 -2.41618 2.20554 
0.0120312 0.00403125 1.9912 2.59115e+21 1.72311e-05 3.47266 -2.23093 0.817968 
0.00546875 0.00909375 1.90662 2.93422e+21 1.95126e-05 -1.39497 0.627896 2.72532 
0.00546875 0.00928125 1.92262 2.8233e+21 1.8775e-05 2.46898 2.35546 3.70584 
0.00546875 0.00946875 2.01978 2.92348e+21 1.94412e-05 -0.631957 -0.183647 -3.92269 
0.00546875 0.00965625 2.02254 2.89981e+21 1.92837e-05 2.78621 5.8212 0.807579 
0.0120312 0.00909375 2.0411 2.50595e+21 1.66646e-05 0.810267 -2.42788 4.40927 
0.00546875 0.00984375 1.92812 3.14486e+21 2.09133e-05 2.72782 4.66386 -3.45579 
0.00546875 0.0100312 2.00054 2.8153e+21 1.87217e-05 -1.7619 3.50182 0.631693 
0.00546875 0.0102187 1.962 3.03336e+21 2.01718e-05 -0.470988 -1.80692 -3.50682 
0.00546875 0.0104062 2.02216 2.95951e+21 1.96808e-05 2.6934 1.70164 2.46759 
0.00546875 0.00459375 1.85164 3.17384e+21 2.11061e-05 -5.5818 6.07799 4.14997 
0.00546875 0.00478125 1.93142 3.50887e+21 2.3334e-05 -3.21718 7.6361 -0.529508 
0.00546875 0.00496875 1.91427 3.68999e+21 2.45384e-05 -2.9045 3.50873 1.33766 
0.00546875 0.00515625 2.05696 3.19946e+21 2.12764e-05 -1.6107 6.1441 4.39227 
0.0120312 0.00459375 1.91103 2.55212e+21 1.69716e-05 -0.23491 0.402185 -1.78698 
0.0120312 0.00478125 2.0124 2.54393e+21 1.69172e-05 4.17935 -1.5207 1.6651 
0.0120312 0.00496875 1.92755 2.43588e+21 1.61986e-05 -1.07017 2.1134 -4.58498 
0.0120312 0.00515625 1.95116 2.57196e+21 1.71035e-05 0.936412 0.264368 -3.34949 
0.00546875 0.00534375 1.96328 3.43105e+21 2.28165e-05 -3.52807 4.03796 1.24972 
0.00546875 0.00553125 2.07889 3.46639e+21 2.30515e-05 -0.854892 2.10818 -4.91933 
0.00546875 0.00571875 1.86496 3.40862e+21 2.26673e-05 -3.18835 1.98742 -0.502876 
0.00546875 0.00590625 2.0275 3.49654e+21 2.3252e-05 2.7334 -0.529135 -0.149213 
0.0120312 0.00534375 1.99014 2.51162e+21 1.67022e-05 3.08352 -0.084777 -0.149149 
0.0120312 0.00553125 1.99535 2.48425e+21 1.65203e-05 3.85958 -1.42223 3.54673 
0.00546875 0.0105937 1.90438 2.745e+21 1.82542e-05 -1.69897 0.0382357 2.49031 
0.00546875 0.0107812 1.97355 2.83805e+21 1.8873e-05 2.15317 4.14876 1.22975 
0.00546875 0.0109687 1.98103 2.97526e+21 1.97855e-05 2.79655 1.41125 -1.16349 
0.00546875 0.0111562 1.94868 3.04699e+21 2.02625e-05 -1.68829 -0.318127 -3.27712 
0.00546875 0.0115312 2.10704 2.83012e+21 1.88203e-05 -0.869223 2.45373 -1.55727 
0.00546875 0.0117188 2.09092 3.03367e+21 2.01739e-05 -0.619919 -5.51871 0.835253 
0.00546875 0.0119063 1.98049 2.98925e+21 1.98785e-05 -1.11445 0.608867 -3.1446 
0.0142187 0.00121875 2.0018 2.51845e+21 1.67477e-05 -0.605595 -0.981995 -3.7255 
0.0164062 0.00121875 1.95271 2.45477e+21 1.63242e-05 0.420901 -1.40036 -0.942884 
0.0142187 0.00140625 2.04929 2.4917e+21 1.65698e-05 1.263 2.67594 -3.62348 
0.0164062 0.00140625 2.01267 2.58828e+21 1.72121e-05 -1.64496 -2.30026 -0.894739 
0.00984375 0.00196875 1.91729 4.27833e+21 2.84509e-05 -0.266238 17.7482 -1.31372 
0.0120312 0.00196875 1.9039 2.48545e+21 1.65283e-05 -0.617693 7.30492 -2.99791 
0.00984375 0.00215625 1.88158 4.14856e+21 2.75879e-05 -1.84298 12.3219 1.1394 
0.0120312 0.00215625 1.91355 2.73245e+21 1.81708e-05 -5.57989 3.73157 -5.3177 
0.00984375 0.00234375 1.9651 4.30885e+21 2.86538e-05 2.27821 13.3916 1.02093 
0.0120312 0.00234375 1.96043 2.60759e+21 1.73405e-05 -2.8449 1.90939 2.4852 
0.00984375 0.00253125 2.04817 3.88219e+21 2.58166e-05 6.16327 16.6149 -2.22641 
0.0120312 0.00253125 2.00703 2.2803e+21 1.5164e-05 8.66506 -1.11666 -4.37628 
0.00984375 0.00271875 1.92299 4.00272e+21 2.66181e-05 0.0739431 12.6028 -0.968039 
0.0120312 0.00271875 2.02319 2.5785e+21 1.71471e-05 2.82908 -0.508921 -5.58754 
0.0120312 0.00290625 2.11205 2.60457e+21 1.73204e-05 -1.83109 1.84477 -3.87757 
0.0120312 0.00421875 2.0424 2.51386e+21 1.67172e-05 -2.18942 -0.262921 -2.77288 
0.0120312 0.00440625 1.9011 2.55193e+21 1.69704e-05 1.07059 0.761112 3.59353 
0.0120312 0.00571875 1.86038 2.50059e+21 1.66289e-05 1.17916 0.57108 1.36265 
0.0120312 0.00590625 2.08631 2.4584e+21 1.63484e-05 5.19896 -2.9022 -4.49805 
0.00492187 0.000796875 1.83038 1.08492e+22 7.21469e-05 34.6178 -3.61227 0.0164963 
0.00601562 0.000796875 1.90534 8.76502e+21 5.82874e-05 49.9212 6.68006 2.41442 
0.00492187 0.000890625 1.8953 1.05785e+22 7.03471e-05 38.9525 -1.46977 -1.98782 
0.00601562 0.000890625 1.82184 8.2258e+21 5.47015e-05 43.0329 -0.990551 5.41572 
0.00492187 0.000984375 1.96354 1.14947e+22 7.64398e-05 40.2458 -2.36818 2.58749 
0.00601562 0.000984375 1.82823 8.34115e+21 5.54686e-05 40.5041 1.02201 0.375802 
0.00492187 0.00107813 1.82388 1.15317e+22 7.6686e-05 30.7457 -1.74555 0.608995 
0.00601562 0.00107813 1.90402 8.37885e+21 5.57194e-05 40.3259 8.82886 0.169902 
0.00273437 0.00117188 1.86037 1.48801e+22 9.89527e-05 21.2511 -7.19258 0.815218 
0.00382812 0.00117188 2.007 1.31787e+22 8.76384e-05 25.9009 -4.49389 -0.940395 
0.00273437 0.00126563 1.61733 1.6295e+22 0.000108362 24.7052 -1.15763 -1.98482 
0.00273437 0.00135937 1.86384 1.52945e+22 0.000101709 31.1425 -7.52961 5.9837 
0.00273437 0.00145312 1.82088 1.56924e+22 0.000104355 16.4849 -7.99316 -3.69603 
0.00492187 0.00117188 1.90237 1.12317e+22 7.46908e-05 28.698 -1.95177 0.104812 
0.00601562 0.00117188 1.77802 8.15887e+21 5.42565e-05 39.0277 2.55352 0.485069 
0.00492187 0.00126563 1.90981 1.06573e+22 7.08708e-05 27.3817 0.290374 3.89584 
0.00601562 0.00126563 1.83969 8.11865e+21 5.3989e-05 37.8062 2.15485 2.38863 
0.00601562 0.00135937 1.83698 8.32375e+21 5.53529e-05 31.2923 0.211346 5.76686 
0.00492187 0.00145312 1.84504 1.02328e+22 6.80479e-05 20.7619 -1.33851 -1.30275 
0.00601562 0.00145312 1.97851 8.09649e+21 5.38417e-05 28.0307 6.68366 -3.55445 
0.0136719 0.00614063 2.01469 2.48974e+21 1.65568e-05 -1.39882 -1.69703 2.63461 
0.0158594 0.00604688 1.95247 2.47187e+21 1.6438e-05 -0.536822 1.43044 1.03005 
0.0169531 0.00604688 2.01727 2.64642e+21 1.75987e-05 2.78585 -3.609 -3.61628 
0.0158594 0.00614063 1.92121 2.63382e+21 1.75149e-05 1.19664 -3.22542 0.565238 
0.0169531 0.00614063 1.97267 2.4771e+21 1.64727e-05 2.78099 -0.929173 -2.97251 
0.0136719 0.00623438 2.05077 2.50956e+21 1.66886e-05 -0.0580615 -3.54549 -0.0349799 
0.0147656 0.00623438 1.98696 2.41994e+21 1.60926e-05 -0.86762 3.98804 -4.54523 
0.0136719 0.00632813 1.99756 2.63917e+21 1.75505e-05 1.30088 -1.58194 -0.863558 
0.0158594 0.00623438 2.01037 2.49214e+21 1.65727e-05 -0.838442 -2.91695 -1.02252 
0.0158594 0.00632813 2.03704 2.5754e+21 1.71264e-05 -2.17931 -1.5885 -2.39103 
0.0169531 0.00632813 2.02315 2.50182e+21 1.66371e-05 2.55373 -4.247 -2.53683 
0.0136719 0.00642188 2.01911 2.50155e+21 1.66353e-05 -0.166283 -1.63594 -1.81844 
0.0136719 0.00651563 1.94564 2.47032e+21 1.64276e-05 0.014562 1.57274 2.11638 
0.0147656 0.00660938 1.9919 2.65603e+21 1.76626e-05 -0.456623 1.04372 -0.0892817 
0.0169531 0.00660938 2.01259 2.59967e+21 1.72878e-05 0.415886 -1.90587 -1.18012 
0.0158594 0.00670313 2.00266 2.53552e+21 1.68612e-05 0.797016 0.622455 -0.742585 
0.0136719 0.00679687 2.05641 2.50512e+21 1.6659e-05 -0.940129 -2.82145 -0.296657 
0.0158594 0.00717187 2.04988 2.43689e+21 1.62053e-05 0.763132 1.44532 -6.70392 
0.00710937 0.0127031 1.96664 2.7887e+21 1.85449e-05 -1.10554 1.37815 -1.63287 
0.00929687 0.0127031 1.95342 2.93037e+21 1.94869e-05 3.3992 0.627459 -0.267116 
0.0125781 0.0127031 1.92774 2.74673e+21 1.82657e-05 3.07379 1.56279 -3.183 
0.0136719 0.0127031 2.07625 2.68114e+21 1.78296e-05 2.93362 -2.73212 1.2129 
0.0147656 0.0127031 1.96359 2.54997e+21 1.69573e-05 1.38736 -3.84086 -2.64086 
0.0169531 0.0127031 2.09196 2.56046e+21 1.70271e-05 -0.740359 -0.828488 -1.38728 
0.00710937 0.00210938 2.0353 3.25236e+21 2.16282e-05 5.00729 13.1304 -5.79623 
0.00820312 0.00210938 1.91919 4.44441e+21 2.95553e-05 7.66082 20.8962 0.743448 
0.00710937 0.00220313 1.82464 3.38873e+21 2.2535e-05 2.92918 19.4641 -0.786839 
0.00820312 0.00220313 1.86007 3.62826e+21 2.4128e-05 10.7642 17.3951 2.66611 
0.00710937 0.00229688 1.97534 3.52072e+21 2.34128e-05 4.76347 19.1511 2.01908 
0.00820312 0.00229688 1.91607 3.79102e+21 2.52103e-05 7.02232 16.7479 2.32797 
0.00710937 0.00239063 1.89986 3.64885e+21 2.42648e-05 8.84823 12.1451 0.0831908 
0.00820312 0.00239063 1.98551 3.89557e+21 2.59055e-05 7.53619 14.0293 -0.518042 
0.00710937 0.00248438 2.00336 3.5299e+21 2.34738e-05 -3.79962 5.43665 0.18791 
0.00820312 0.00248438 2.15118 3.6486e+21 2.42632e-05 1.92795 14.5419 0.65667 
0.00710937 0.00257813 1.95945 3.54001e+21 2.3541e-05 1.28261 9.50369 0.254856 
0.00820312 0.00257813 2.06467 3.79889e+21 2.52626e-05 5.30645 18.6095 2.36999 
0.00710937 0.00267187 1.98437 3.4158e+21 2.2715e-05 -2.13484 9.79257 2.92126 
0.00820312 0.00267187 1.92518 3.56684e+21 2.37195e-05 -2.57845 12.6515 3.71081 
0.00710937 0.00276562 1.90424 3.41786e+21 2.27288e-05 -0.563185 11.3569 0.282358 
0.00820312 0.00276562 2.05336 3.8444e+21 2.55652e-05 2.12555 13.4448 -1.80218 
0.00710937 0.00285937 2.00457 3.50122e+21 2.32831e-05 3.70605 11.1567 -3.66534 
0.00820312 0.00285937 1.86923 3.74549e+21 2.49075e-05 -0.00413054 16.5294 1.2862 
0.00710937 0.00295313 1.92431 3.44263e+21 2.28935e-05 0.436199 9.02041 -0.199272 
0.00820312 0.00295313 1.99759 3.94194e+21 2.62139e-05 2.89409 14.046 -0.104165 
0.00710937 0.00304688 2.00693 3.48953e+21 2.32054e-05 -3.36395 10.0015 0.173488 
0.00820312 0.00304688 1.9172 3.79009e+21 2.52041e-05 -2.11736 15.2393 -1.98829 
0.00710937 0.00314063 1.95002 3.38042e+21 2.24798e-05 -4.63129 7.29566 -1.83506 
0.00820312 0.00314063 1.96342 3.72637e+21 2.47804e-05 1.11071 14.1524 1.58318 
0.00710937 0.00323438 1.87097 3.55597e+21 2.36472e-05 0.744441 10.41 -4.33356 
0.00820312 0.00323438 1.99505 3.58477e+21 2.38387e-05 -0.338218 9.95226 -3.1199 
0.00710937 0.00332813 1.98985 3.37186e+21 2.24229e-05 -0.701043 10.478 -0.942783 
0.00820312 0.00332813 1.82503 3.63303e+21 2.41596e-05 -7.37032 18.5047 -1.79724 
0.00710937 0.00342187 1.98772 3.42009e+21 2.27436e-05 -1.31406 6.31343 -1.38604 
0.00820312 0.00342187 1.99546 3.56524e+21 2.37089e-05 -5.3702 11.8123 -1.27419 
0.00710937 0.00351562 1.99063 3.50108e+21 2.32821e-05 0.242332 10.8275 1.82434 
0.00820312 0.00351562 1.93181 3.40836e+21 2.26656e-05 -2.4006 10.4804 3.73941 
0.00710937 0.00360937 1.85791 3.51335e+21 2.33637e-05 2.86645 7.56817 -2.17878 
0.00820312 0.00360937 1.91848 3.46174e+21 2.30206e-05 -5.15038 11.4742 -1.03821 
0.00820312 0.00370312 1.9518 3.59206e+21 2.38872e-05 -1.6345 11.2598 2.83651 
0.00710937 0.00379687 2.02742 3.66688e+21 2.43848e-05 -0.128578 10.2811 1.98375 
0.00820312 0.00379687 1.90966 3.73638e+21 2.48469e-05 -4.06762 12.7016 0.571328 
0.00710937 0.00389062 2.01173 3.33517e+21 2.21789e-05 -2.10503 10.4151 1.59056 
0.00820312 0.00389062 2.02765 3.40698e+21 2.26564e-05 -1.9195 13.7822 0.793783 
0.00820312 0.00398438 1.98346 3.52938e+21 2.34704e-05 0.783153 9.32254 1.18766 
0.00820312 0.00407813 1.99256 3.50534e+21 2.33105e-05 -1.94459 9.48042 1.51792 
0.00710937 0.00417188 1.91123 3.68328e+21 2.44938e-05 -0.79306 7.94975 0.783268 
0.00820312 0.00417188 1.91072 3.50842e+21 2.3331e-05 -4.25385 10.4386 -1.8277 
0.00710937 0.00426563 1.90465 3.50408e+21 2.33022e-05 0.69724 10.5803 -1.37231 
0.00820312 0.00426563 1.92757 3.54047e+21 2.35441e-05 -2.45578 12.9822 -0.209597 
0.00710937 0.00445313 1.98073 3.37746e+21 2.24601e-05 0.12492 8.48876 2.68355 
0.0136719 0.00379687 2.00361 2.50591e+21 1.66643e-05 0.334824 1.90149 -2.34293 
0.0147656 0.00379687 2.03842 2.4732e+21 1.64468e-05 -4.64188 0.305829 -0.0550481 
0.0136719 0.00389062 1.98505 2.44951e+21 1.62893e-05 -2.53288 -1.9445 -4.17028 
0.0147656 0.00389062 2.03022 2.54526e+21 1.6926e-05 -0.109171 3.8556 1.90477 
0.0158594 0.00417188 1.99948 2.49272e+21 1.65766e-05 -0.487719 0.27879 1.16418 
0.0169531 0.00417188 2.00678 2.489e+21 1.65519e-05 2.53588 -2.83505 -0.955934 
0.0158594 0.00426563 2.02975 2.66718e+21 1.77367e-05 -1.76325 -0.741865 -4.59855 
0.0169531 0.00426563 1.91543 2.46705e+21 1.64059e-05 4.92915 5.2199 0.699463 
0.0103906 0.00923437 0 0 0 0 0 0 
0.0103906 0.00932812 0 0 0 0 0 0 
0.0103906 0.00942187 0 0 0 0 0 0 
0.0103906 0.00951562 1.94172 2.87506e+21 1.91191e-05 -0.474009 1.03176 3.38108 
0.00710937 0.00454687 1.97291 3.53995e+21 2.35406e-05 0.542139 7.73578 1.76839 
0.00820312 0.00454687 2.05686 3.20541e+21 2.1316e-05 -2.29377 8.18015 0.00111598 
0.00710937 0.00482812 1.92775 3.50412e+21 2.33024e-05 -1.70312 5.37991 -1.31003 
0.00710937 0.00492187 2.13414 3.10625e+21 2.06566e-05 -4.8839 3.76163 -0.718862 
0.00820312 0.00501562 2.03558 3.36074e+21 2.2349e-05 -2.84288 9.87217 1.78857 
0.00710937 0.00510937 1.95368 3.30819e+21 2.19995e-05 -2.51693 7.86058 -0.218554 
0.00710937 0.00520312 2.06303 3.42757e+21 2.27934e-05 0.427319 4.83275 4.50904 
0.0136719 0.00529687 2.00859 2.6021e+21 1.7304e-05 1.16519 2.82835 2.67121 
0.0147656 0.00529687 1.98943 2.49954e+21 1.66219e-05 -0.504979 -3.00162 -3.59785 
0.0136719 0.00539062 2.06303 2.43016e+21 1.61605e-05 -2.73952 -4.33066 -0.242588 
0.0147656 0.00539062 2.0733 2.41864e+21 1.60839e-05 0.162388 -0.687176 -2.08226 
0.0158594 0.00529687 2.06572 2.53763e+21 1.68753e-05 -0.238687 -0.907854 -0.560767 
0.0169531 0.00529687 1.98827 2.57866e+21 1.71481e-05 3.0645 0.798505 -2.34879 
0.0169531 0.00539062 2.04227 2.56548e+21 1.70605e-05 4.89439 -1.37857 1.11387 
0.0136719 0.00567187 1.98396 2.54226e+21 1.6906e-05 0.0519214 -3.06448 -0.283809 
0.0147656 0.00576562 2.06346 2.53053e+21 1.68281e-05 2.43673 -0.138577 -0.702275 
0.0191406 0.00473437 2.00694 2.59325e+21 1.72451e-05 5.13576 -0.822677 -0.965111 
0.0180469 0.00482812 1.9382 2.48503e+21 1.65255e-05 1.90251 -0.926116 1.4951 
0.0191406 0.00482812 2.02413 2.53325e+21 1.68461e-05 0.76735 0.474946 0.737109 
0.0246094 0.00473437 2.0482 2.45556e+21 1.63295e-05 4.27474 -0.712848 -1.41151 
0.0257031 0.00473437 2.18341 2.449e+21 1.62858e-05 4.28024 -4.07581 2.80543 
0.0246094 0.00482812 1.99328 2.40145e+21 1.59696e-05 0.995357 2.16938 -1.50813 
0.0257031 0.00482812 2.02524 2.58147e+21 1.71668e-05 0.305596 -0.271915 -0.64229 
0.0224219 0.00492187 2.01156 2.69313e+21 1.79093e-05 4.10438 -4.31282 1.32835 
0.0235156 0.00492187 1.97182 2.51338e+21 1.6714e-05 3.92035 -2.54315 -2.41029 
0.0224219 0.00501562 2.05357 2.54686e+21 1.69366e-05 4.92405 2.52447 0.196405 
0.0235156 0.00501562 1.99361 2.54067e+21 1.68955e-05 0.45548 1.56612 -3.00964 
0.0289844 0.00473437 1.98344 2.45228e+21 1.63076e-05 1.57901 0.739862 -2.86306 
0.0300781 0.00473437 2.03589 2.56702e+21 1.70707e-05 7.47929 2.42478 0.378333 
0.0289844 0.00482812 2.03279 2.47217e+21 1.64399e-05 0.515679 -2.70142 0.636952 
0.0300781 0.00482812 1.97759 2.60076e+21 1.72951e-05 -0.998702 -0.164092 -0.232757 
0.0267969 0.00492187 1.9661 2.61114e+21 1.73641e-05 2.422 -2.31769 4.12773 
0.0278906 0.00492187 2.0799 2.6143e+21 1.73851e-05 2.38364 2.19086 2.80298 
0.0267969 0.00501562 1.99679 2.6397e+21 1.7554e-05 3.19979 0.906989 -1.21116 
0.0278906 0.00501562 1.97764 2.30548e+21 1.53315e-05 5.06877 -0.24595 -1.82746 
0.0180469 0.00529687 1.88059 2.54056e+21 1.68948e-05 -0.383112 -2.13193 1.42557 
0.0191406 0.00529687 1.97526 2.66364e+21 1.77132e-05 0.54062 -1.15241 0.214271 
0.0180469 0.00539062 1.99684 2.47623e+21 1.64669e-05 3.24724 0.585327 3.82235 
0.0191406 0.00539062 2.0148 2.55397e+21 1.69839e-05 0.706782 -0.322989 -1.81148 
0.0246094 0.00548437 2.05552 2.59521e+21 1.72582e-05 0.366311 4.22041 -0.456402 
0.0257031 0.00548437 2.07374 2.71125e+21 1.80298e-05 0.659714 0.999945 1.12874 
0.0246094 0.00557812 2.01247 2.61559e+21 1.73937e-05 1.62025 3.02112 0.422117 
0.0257031 0.00557812 2.02464 2.52099e+21 1.67646e-05 2.26953 1.6114 0.390676 
0.0180469 0.00567187 1.97748 2.49847e+21 1.66149e-05 4.19145 1.69451 1.36459 
0.0191406 0.00567187 1.96337 2.52858e+21 1.6815e-05 -1.53214 0.0132642 -2.93527 
0.0180469 0.00576562 1.93374 2.474e+21 1.64521e-05 -0.921433 -0.0276602 -0.182493 
0.0191406 0.00576562 1.97 2.62476e+21 1.74546e-05 -1.58567 0.0991116 -2.22183 
0.0191406 0.00585938 2.08469 2.45031e+21 1.62946e-05 0.329469 -1.6529 1.05853 
0.0180469 0.00595313 2.04379 2.59163e+21 1.72343e-05 3.72452 -2.56451 -3.91593 
0.0191406 0.00595313 2.02241 2.71417e+21 1.80492e-05 3.21902 1.14309 -0.27734 
0.0224219 0.00567187 1.9756 2.65446e+21 1.76521e-05 0.602088 -1.75769 1.63402 
0.0235156 0.00567187 2.02043 2.6052e+21 1.73246e-05 1.74955 -0.30101 -0.330652 
0.0224219 0.00576562 1.97327 2.64091e+21 1.7562e-05 0.263691 -2.06629 0.405102 
0.0235156 0.00576562 2.0111 2.59784e+21 1.72756e-05 2.22518 -1.44907 -4.25656 
0.0235156 0.00585938 2.0869 2.63574e+21 1.75277e-05 1.01282 1.77093 2.06697 
0.0224219 0.00595313 2.05615 2.67245e+21 1.77718e-05 1.91512 0.162603 -2.25374 
0.0235156 0.00595313 2.0674 2.54209e+21 1.69049e-05 4.23782 2.51754 -3.13604 
0.0246094 0.00585938 1.97376 2.57481e+21 1.71225e-05 3.90362 5.47966 2.81534 
0.0257031 0.00585938 1.93856 2.68342e+21 1.78448e-05 -1.27073 4.52263 0.0824425 
0.0246094 0.00595313 2.10006 2.57077e+21 1.70956e-05 3.23382 -1.96606 -0.596236 
0.0278906 0.00529687 1.97678 2.45266e+21 1.63102e-05 3.4332 3.96568 -2.00524 
0.0278906 0.00539062 1.97013 2.49926e+21 1.66201e-05 -1.15113 1.65706 -0.283285 
0.0267969 0.00548437 2.02365 2.4339e+21 1.61854e-05 2.48526 -2.26151 0.604764 
0.0278906 0.00548437 1.94245 2.64049e+21 1.75593e-05 -0.0149374 -2.12504 1.35219 
0.0278906 0.00557812 2.00103 2.54047e+21 1.68941e-05 2.78101 -0.135033 -2.8371 
0.0300781 0.00548437 1.97863 2.59521e+21 1.72582e-05 -0.138827 -0.273812 0.0728653 
0.0289844 0.00557812 1.90159 2.60168e+21 1.73012e-05 0.944989 -0.352534 -0.322523 
0.0300781 0.00557812 1.97991 2.51542e+21 1.67276e-05 1.50451 -1.25324 0.640531 
0.0311719 0.00548437 1.91649 2.58106e+21 1.71641e-05 7.1303 -1.93835 1.63803 
0.0322656 0.00548437 1.98266 2.51314e+21 1.67124e-05 5.45043 -1.87776 0.626716 
0.0311719 0.00557812 2.13969 2.46534e+21 1.63945e-05 0.973015 4.24123 1.27091 
0.0322656 0.00557812 2.05119 2.51821e+21 1.67461e-05 0.100498 -1.17064 2.02342 
0.0267969 0.00567187 1.99156 2.50668e+21 1.66694e-05 3.15842 -1.38551 2.06798 
0.0278906 0.00567187 2.0726 2.62709e+21 1.74702e-05 3.11782 -0.183846 -0.953947 
0.0278906 0.00576562 1.99134 2.61937e+21 1.74188e-05 1.0469 2.13315 2.5632 
0.0289844 0.00567187 1.94702 2.65719e+21 1.76703e-05 5.07276 -2.37334 4.42723 
0.0300781 0.00567187 1.96132 2.39722e+21 1.59415e-05 -0.0750601 3.12013 -4.00386 
0.0289844 0.00576562 1.96655 2.72975e+21 1.81528e-05 1.70605 -2.28849 0.240739 
0.0300781 0.00576562 2.0096 2.50361e+21 1.6649e-05 3.37603 -1.48621 -1.69977 
0.0322656 0.00567187 2.106 2.41911e+21 1.60871e-05 -2.41846 0.54954 0.954427 
0.0322656 0.00585938 2.01602 2.43442e+21 1.61889e-05 0.330117 3.82418 1.48938 
0.0311719 0.00595313 1.93732 2.43258e+21 1.61767e-05 0.712402 1.71309 -1.00736 
0.0322656 0.00595313 2.0127 2.54469e+21 1.69222e-05 1.25193 1.78662 -3.69986 
0.0333594 0.00585938 1.95058 2.36554e+21 1.57309e-05 -1.38154 4.21052 0.808425 
0.0344531 0.00595313 1.96188 2.53948e+21 1.68875e-05 4.08669 4.56008 4.49541 
0.0180469 0.0165469 0 0 0 0 0 0 
0.0180469 0.0166406 0 0 0 0 0 0 
0.0180469 0.0171094 0 0 0 0 0 0 
0.0180469 0.0172031 0 0 0 0 0 0 
0.0109375 0.0001875 2.05671 6.44237e+21 4.28418e-05 8.20184 0.192769 2.69254 
0.0109375 0.0001875 2.13128 2.55647e+21 1.70005e-05 5.1919 2.07235 16.4691 
0.0153125 0.0001875 1.98122 2.66451e+21 1.7719e-05 -3.05205 2.03545 -3.72764 
0.0109375 0.0005625 2.01815 5.56211e+21 3.6988e-05 8.29166 9.64218 -0.562624 
0.0109375 0.0005625 1.89082 2.62748e+21 1.74727e-05 -2.63139 2.81617 -0.283083 
0.00546875 9.375e-05 1.8331 1.08443e+22 7.21145e-05 52.459 5.37637 -2.48732 
0.00765625 9.375e-05 1.81056 5.67048e+21 3.77087e-05 52.3888 -3.73249 -6.77992 
0.00546875 0.00028125 1.81124 9.74054e+21 6.47746e-05 49.0167 -1.4387 4.03716 
0.00765625 0.00028125 1.97636 5.73947e+21 3.81675e-05 46.4648 4.26069 1.28641 
0.00273437 0.000796875 1.85762 1.34662e+22 8.95499e-05 21.6 -2.0353 0.801276 
0.00382812 0.000796875 1.9691 1.2758e+22 8.48406e-05 31.6503 -0.80096 0.41145 
0.00273437 0.000890625 1.80008 1.18604e+22 7.88717e-05 27.2758 -8.87312 12.849 
0.00382812 0.000890625 1.92622 1.40989e+22 9.37575e-05 29.2692 -8.50525 -4.96797 
0.00273437 0.000984375 1.88802 1.53298e+22 0.000101943 25.9227 14.8792 -1.40716 
0.00382812 0.000984375 1.91214 1.3103e+22 8.7135e-05 27.8634 -1.26113 0.38862 
0.00273437 0.00107813 2.15394 1.25971e+22 8.37706e-05 16.8877 -17.9744 -7.18126 
0.00382812 0.00107813 1.85477 1.43103e+22 9.51633e-05 27.718 -5.4569 2.04875 
0.00929687 0.00623438 2.06839 2.95696e+21 1.96638e-05 1.00318 8.56454 -1.68695 
0.0103906 0.00623438 0 0 0 0 0 0 
0.00929687 0.00632813 1.98494 3.21581e+21 2.13852e-05 1.63394 4.84627 1.71269 
0.0103906 0.00632813 0 0 0 0 0 0 
0.00929687 0.00660938 1.98675 3.37863e+21 2.24679e-05 2.38729 3.30429 2.07942 
0.0103906 0.00660938 0 0 0 0 0 0 
0.0103906 0.00670313 0 0 0 0 0 0 
0.00929687 0.00735937 1.9823 3.03136e+21 2.01585e-05 3.39903 3.92561 2.88054 
0.0103906 0.00735937 0 0 0 0 0 0 
0.0103906 0.00745312 0 0 0 0 0 0 
0.00710937 0.00192187 1.97948 3.7958e+21 2.52421e-05 3.74842 13.4204 3.16992 
0.00820312 0.00192187 1.95306 4.16731e+21 2.77126e-05 7.83872 17.3746 -1.73606 
0.00710937 0.00201563 1.80661 3.77326e+21 2.50922e-05 8.75719 19.2641 -2.03938 
0.00820312 0.00201563 2.04515 4.16599e+21 2.77038e-05 11.5183 18.8699 -3.24977 
0.0103906 0.00773437 0 0 0 0 0 0 
0.0103906 0.00782813 0 0 0 0 0 0 
0.00929687 0.00829688 2.04192 2.91181e+21 1.93635e-05 -0.932133 4.56271 -0.792655 
0.0103906 0.00829688 0 0 0 0 0 0 
0.0103906 0.00839063 0 0 0 0 0 0 
0.0103906 0.00848438 0 0 0 0 0 0 
0.0103906 0.00857813 0 0 0 0 0 0 
0.0103906 0.00885938 0 0 0 0 0 0 
0.0103906 0.00895312 0 0 0 0 0 0 
0.0158594 0.00342187 1.95477 2.35869e+21 1.56853e-05 -2.54009 -1.49689 -0.844315 
0.0169531 0.00342187 2.02559 2.37229e+21 1.57757e-05 -3.15906 -2.09127 -1.22983 
0.0158594 0.00351562 2.04384 2.67547e+21 1.77919e-05 0.968793 3.35216 -0.999394 
0.0169531 0.00351562 2.0548 2.49888e+21 1.66175e-05 1.0499 -2.40896 3.77003 
0.0103906 0.00904687 0 0 0 0 0 0 
0.0103906 0.00914062 0 0 0 0 0 0 
0.0136719 0.00454687 1.90825 2.39638e+21 1.59359e-05 0.990934 -1.60371 2.49732 
0.0147656 0.00454687 2.05188 2.4783e+21 1.64807e-05 2.89792 -4.42004 -1.28736 
0.0136719 0.00464062 1.94459 2.55199e+21 1.69707e-05 1.41926 0.39894 -1.11448 
0.0147656 0.00464062 1.95358 2.63226e+21 1.75045e-05 3.73276 -1.84414 3.63744 
0.0136719 0.00473437 1.91467 2.68833e+21 1.78774e-05 0.66764 -4.38085 -1.49134 
0.0147656 0.00473437 2.07297 2.51129e+21 1.67001e-05 -0.75103 2.09039 -2.27958 
0.0136719 0.00482812 2.02425 2.50753e+21 1.66751e-05 1.05801 -1.8224 0.0476768 
0.0147656 0.00482812 2.05442 2.47217e+21 1.64399e-05 4.59459 -0.960845 -0.276293 
0.0158594 0.00492187 1.98975 2.64583e+21 1.75948e-05 3.37881 -2.81862 1.68829 
0.0169531 0.00492187 2.01691 2.57015e+21 1.70915e-05 2.33853 -1.83904 -0.695579 
0.0158594 0.00501562 1.98941 2.48188e+21 1.65045e-05 -0.142872 -1.18134 -2.31181 
0.0169531 0.00501562 2.03902 2.62732e+21 1.74717e-05 5.42325 -5.02168 4.16293 
0.0158594 0.00510937 1.96143 2.53659e+21 1.68683e-05 5.19773 0.388868 0.644644 
0.0169531 0.00510937 2.02613 2.60646e+21 1.73329e-05 -0.407204 -4.8883 -0.374865 
0.0158594 0.00520312 2.03123 2.55054e+21 1.69611e-05 -1.11583 -1.01736 -1.38088 
0.0169531 0.00520312 2.01177 2.43719e+21 1.62073e-05 3.4287 -3.37405 1.98256 
0.0158594 0.00548437 2.02151 2.41692e+21 1.60725e-05 1.45748 0.0659197 4.28439 
0.0158594 0.00557812 1.91327 2.57107e+21 1.70976e-05 -1.78632 -3.21104 -1.79224 
0.0169531 0.00585938 1.95672 2.54303e+21 1.69111e-05 2.98472 -1.44554 1.94389 
0.0169531 0.00595313 1.92357 2.56555e+21 1.70609e-05 4.44476 -2.49564 -0.172215 
0.0180469 0.00454687 1.9862 2.49196e+21 1.65715e-05 2.00534 -2.61703 -1.50154 
0.0191406 0.00454687 2.10859 2.49196e+21 1.65715e-05 4.41547 0.98769 0.0899604 
0.0180469 0.00464062 1.97057 2.42155e+21 1.61033e-05 -1.73225 -0.823296 3.85005 
0.0191406 0.00464062 1.94046 2.55868e+21 1.70152e-05 -0.497491 -0.116004 0.304429 
0.0224219 0.00454687 1.84394 2.57388e+21 1.71163e-05 1.81535 0.591555 1.09929 