ITEM: TIMESTEP
500000
ITEM: NUMBER OF CELLS
35462
ITEM: BOX BOUNDS oo ao pp
0 0.35
0 0.03
-0.1 0.1
ITEM: CELLS xc yc f_out[1] f_out[2] f_out[3] f_out[4] f_out[5] f_out[6] 
0.00875 0.01575 0 0 0 0 0 0 
0.00875 0.01875 0 0 0 0 0 0 
0.00875 0.02175 0 0 0 0 0 0 
0.00875 0.02475 0 0 0 0 0 0 
0.00875 0.02775 0 0 0 0 0 0 
0.02625 0.02475 0 0 0 0 0 0 
0.02625 0.02775 0 0 0 0 0 0 
0.00875 0.01425 0 0 0 0 0 0 
0.00875 0.01725 0 0 0 0 0 0 
0.00875 0.02025 0 0 0 0 0 0 
0.00875 0.02325 0 0 0 0 0 0 
0.00875 0.02625 0 2.30973e+15 1.53597e-11 -24.4007 0.582545 -0.781629 
0.00875 0.02925 0 0 0 0 0 0 
0.02625 0.02325 0 0 0 0 0 0 
0.02625 0.02625 0 0 0 0 0 0 
0.02625 0.02925 0 2.07284e+15 1.37844e-11 -31.572 2.99696 -4.43432 
0.04375 0.02325 0 0 0 0 0 0 
0.04375 0.02625 0 2.30973e+15 1.53597e-11 -24.4007 0.558746 -0.798815 
0.04375 0.02925 0.122193 1.65827e+16 1.10275e-10 -82.8186 17.5395 4.62818 
0.004375 0.013125 0 0 0 0 0 0 
0.013125 0.013125 0 0 0 0 0 0 
0.021875 0.022125 0 0 0 0 0 0 
0.030625 0.022125 0 0 0 0 0 0 
0.0021875 0.0001875 2.01623 1.38653e+22 9.22046e-05 29.9001 -2.98334 -4.23372 
0.0109375 0.0009375 2.12806 5.22355e+21 3.47366e-05 3.8718 13.0957 -2.29493 
0.0109375 0.0009375 2.01179 2.1943e+21 1.45921e-05 -4.67743 -0.405599 -3.80452 
0.0021875 0.0031875 0 0 0 0 0 0 
0.0021875 0.0035625 0 0 0 0 0 0 
0.0021875 0.0039375 0 0 0 0 0 0 
0.0021875 0.0043125 0 0 0 0 0 0 
0.0021875 0.0061875 0 0 0 0 0 0 
0.0021875 0.0065625 0 0 0 0 0 0 
0.0021875 0.0069375 0 0 0 0 0 0 
0.0021875 0.0073125 0 0 0 0 0 0 
0.0021875 0.0091875 0 0 0 0 0 0 
0.0021875 0.0095625 0 0 0 0 0 0 
0.0021875 0.0099375 0 0 0 0 0 0 
0.0021875 0.0103125 0 0 0 0 0 0 
0.0021875 0.0121875 0 0 0 0 0 0 
0.0021875 0.0125625 0 0 0 0 0 0 
0.0021875 0.0020625 0 0 0 0 0 0 
0.0021875 0.0024375 0 0 0 0 0 0 
0.0021875 0.0028125 0 0 0 0 0 0 
0.0021875 0.0046875 0 0 0 0 0 0 
0.0021875 0.0050625 0 0 0 0 0 0 
0.0021875 0.0054375 0 0 0 0 0 0 
0.0021875 0.0058125 0 0 0 0 0 0 
0.0021875 0.0076875 0 0 0 0 0 0 
0.0021875 0.0080625 0 0 0 0 0 0 
0.0021875 0.0084375 0 0 0 0 0 0 
0.0021875 0.0088125 0 0 0 0 0 0 
0.0021875 0.0106875 0 0 0 0 0 0 
0.0021875 0.0110625 0 0 0 0 0 0 
0.0021875 0.0114375 0 0 0 0 0 0 
0.0021875 0.0118125 0 0 0 0 0 0 
0.0109375 0.0001875 2.10549 5.33963e+21 3.55085e-05 12.1551 -4.26027 -3.80162 
0.0109375 0.0001875 1.95329 2.71624e+21 1.8063e-05 4.66959 7.26755 -10.1461 
0.0153125 0.0001875 2.16818 2.35408e+21 1.56546e-05 -2.38784 1.06705 -0.746911 
0.0109375 0.0005625 2.08108 5.39767e+21 3.58945e-05 7.00823 8.11667 0.777359 
0.0109375 0.0005625 2.0548 2.39669e+21 1.5938e-05 6.019 0.927731 -13.4282 
0.0196875 0.0001875 2.0089 2.27647e+21 1.51385e-05 2.25785 -1.68984 -0.201303 
0.0240625 0.0001875 1.98387 2.40582e+21 1.59987e-05 4.16337 -2.54844 2.90139 
0.00546875 9.375e-05 1.82636 1.04304e+22 6.9362e-05 46.2899 9.44765 -6.69013 
0.00765625 9.375e-05 1.73032 5.5877e+21 3.71582e-05 58.1943 1.8171 -1.05949 
0.00546875 0.00028125 1.82257 9.69915e+21 6.44993e-05 48.1482 0.265827 -1.48727 
0.00765625 0.00028125 1.81206 5.51872e+21 3.66995e-05 46.3092 -0.23257 -0.90804 
0.00109375 0.00046875 0 0 0 0 0 0 
0.00328125 0.00046875 1.98279 1.2941e+22 8.60576e-05 33.5253 -2.37995 1.04849 
0.00109375 0.00065625 0 0 0 0 0 0 
0.00765625 0.00046875 1.90134 5.33936e+21 3.55067e-05 41.5079 5.73754 1.338 
0.00765625 0.00065625 1.94848 5.46353e+21 3.63325e-05 45.8502 8.09514 2.18911 
0.00109375 0.00084375 0 0 0 0 0 0 
0.00109375 0.00103125 0 0 0 0 0 0 
0.00109375 0.00121875 0 0 0 0 0 0 
0.00109375 0.00140625 0 0 0 0 0 0 
0.0142187 0.00121875 1.99835 2.31786e+21 1.54138e-05 -2.47561 3.25428 -0.494912 
0.0164062 0.00121875 2.02203 2.46114e+21 1.63666e-05 0.156534 -1.10001 0.591817 
0.0142187 0.00140625 1.94335 2.55793e+21 1.70102e-05 -0.943355 -3.4624 5.26587 
0.0164062 0.00140625 2.00671 2.57172e+21 1.7102e-05 -0.602262 -2.46407 0.550225 
0.00546875 0.00309375 1.8538 3.42153e+21 2.27532e-05 2.73327 5.80441 -2.67029 
0.00546875 0.00328125 1.84107 3.16515e+21 2.10482e-05 4.0596 0.19603 0.269874 
0.00546875 0.00346875 2.03129 3.47771e+21 2.31268e-05 0.445356 8.09266 -2.92199 
0.00546875 0.00365625 1.80658 3.37585e+21 2.24494e-05 5.1561 -0.748083 3.67509 
0.0120312 0.00346875 2.10313 2.18221e+21 1.45117e-05 -1.38121 -1.66319 5.45274 
0.0120312 0.00365625 2.00333 2.36528e+21 1.57291e-05 0.430498 3.48359 5.03098 
0.00546875 0.00384375 1.9033 3.5645e+21 2.37039e-05 2.41137 0.427712 -0.7787 
0.00546875 0.00403125 1.91281 3.57707e+21 2.37875e-05 4.41039 4.17334 1.11174 
0.00546875 0.00421875 1.95802 3.36128e+21 2.23525e-05 3.48267 1.36064 0.198336 
0.00546875 0.00440625 1.64192 2.97348e+21 1.97736e-05 4.69861 -2.30505 -0.754506 
0.00546875 0.00609375 2.0006 3.15297e+21 2.09673e-05 2.90178 -1.08354 1.38349 
0.00546875 0.00628125 2.00732 3.17332e+21 2.11026e-05 3.96592 5.54562 -1.41259 
0.00546875 0.00646875 2.09922 3.15544e+21 2.09837e-05 1.54355 0.596222 1.35115 
0.00546875 0.00665625 1.923 2.68249e+21 1.78385e-05 -0.300038 2.28568 1.13898 
0.0120312 0.00609375 1.97762 2.54008e+21 1.68915e-05 0.363809 1.42401 2.05298 
0.0120312 0.00628125 1.99364 2.3625e+21 1.57107e-05 0.889521 1.11973 0.251412 
0.0120312 0.00646875 2.01634 2.57808e+21 1.71442e-05 -1.83379 1.98717 6.06389 
0.0120312 0.00665625 1.96345 2.51146e+21 1.67012e-05 1.55261 2.41425 2.2208 
0.00546875 0.00684375 1.98233 3.0876e+21 2.05326e-05 1.55916 5.37497 -0.490102 
0.00546875 0.00703125 2.01972 3.26091e+21 2.16851e-05 -1.5945 6.52594 -0.493109 
0.00546875 0.00721875 1.92515 2.97701e+21 1.97971e-05 -1.06194 8.04916 1.19215 
0.00546875 0.00740625 2.01345 3.07962e+21 2.04795e-05 0.263468 4.98794 0.311678 
0.0120312 0.00684375 1.93404 2.39887e+21 1.59525e-05 -1.2304 -1.05955 -0.95779 
0.0120312 0.00703125 1.98681 2.47409e+21 1.64527e-05 4.56236 1.42002 4.69578 
0.0120312 0.00721875 1.93993 2.31299e+21 1.53814e-05 3.33957 -1.72068 -0.0427559 
0.00546875 0.00909375 1.92807 3.03525e+21 2.01844e-05 2.94892 -0.292208 -4.60543 
0.00546875 0.00928125 1.97231 2.80609e+21 1.86605e-05 0.725477 3.83493 5.58889 
0.00546875 0.00946875 1.99952 2.94458e+21 1.95814e-05 2.45172 3.8229 -0.235051 
0.00546875 0.00965625 1.88286 2.8874e+21 1.92012e-05 2.11292 3.88292 -0.703993 
0.00546875 0.00984375 1.98715 2.80805e+21 1.86736e-05 0.925286 -1.21203 2.96102 
0.00546875 0.0100312 1.92099 2.88697e+21 1.91984e-05 -4.64899 4.22647 -2.55595 
0.00546875 0.0102187 1.94529 2.7441e+21 1.82482e-05 2.27806 3.84587 2.63748 
0.00546875 0.0104062 2.03527 2.9979e+21 1.9936e-05 -0.704344 4.9256 -0.285265 
0.00546875 0.0120938 2.09828 3.06181e+21 2.03611e-05 3.16431 -1.45282 1.39702 
0.00546875 0.0122813 2.04336 2.90123e+21 1.92932e-05 1.17688 5.70277 -0.867472 
0.00546875 0.0126563 1.99055 2.77283e+21 1.84393e-05 -0.0753968 2.69489 -0.0173593 
0.0185937 0.00084375 1.9735 2.51102e+21 1.66983e-05 8.89492 -0.0837782 1.81713 
0.0207812 0.00084375 2.06704 2.69497e+21 1.79216e-05 -1.99859 -0.0111057 -1.84341 
0.0185937 0.00103125 1.97533 2.35549e+21 1.5664e-05 2.92294 1.53906 -3.22086 
0.0207812 0.00103125 1.99227 2.35549e+21 1.5664e-05 -1.38073 1.50836 -1.4949 
0.0185937 0.0216562 1.96856 2.40673e+21 1.60048e-05 -0.0551301 1.40894 -0.590029 
0.00546875 0.00178125 1.8752 3.09467e+21 2.05795e-05 7.33949 1.13097 3.45299 
0.00546875 0.00196875 1.9598 3.55065e+21 2.36118e-05 -11.6066 10.2081 -1.77654 
0.00546875 0.00215625 1.94092 2.79729e+21 1.8602e-05 2.40238 -0.22037 0.995891 
0.0142187 0.00159375 2.04478 2.48342e+21 1.65148e-05 1.59141 0.968695 -3.52447 
0.0164062 0.00159375 1.97392 2.41769e+21 1.60776e-05 2.93011 1.22138 3.22933 
0.00546875 0.00234375 2.02557 3.22115e+21 2.14206e-05 0.972853 8.33831 2.93898 
0.00546875 0.00253125 1.78531 3.04567e+21 2.02537e-05 1.16623 7.21472 -7.20217 
0.00546875 0.00271875 1.91322 3.11477e+21 2.07132e-05 -6.6315 2.06547 -2.90542 
0.00546875 0.00290625 2.01796 3.27118e+21 2.17533e-05 -5.61036 -0.785223 -0.628984 
0.00984375 0.00234375 1.92396 4.15098e+21 2.7604e-05 -2.66165 14.7632 0.208917 
0.0120312 0.00234375 1.86343 2.54794e+21 1.69438e-05 5.95677 0.151236 -2.78324 
0.00984375 0.00253125 2.00966 3.77471e+21 2.51018e-05 1.41028 17.5775 -1.11015 
0.0120312 0.00253125 1.94116 2.57225e+21 1.71054e-05 -3.78364 -0.467456 3.05337 
0.00546875 0.00459375 1.94712 3.28688e+21 2.18578e-05 4.01023 1.89479 -2.06988 
0.00546875 0.00478125 2.15211 3.04938e+21 2.02784e-05 -5.42833 2.05663 1.33869 
0.00546875 0.00496875 2.01051 2.96646e+21 1.9727e-05 -4.79931 6.76354 -5.45435 
0.00546875 0.00515625 2.10066 3.15297e+21 2.09673e-05 5.96767 2.34305 -0.117504 
0.0120312 0.00459375 2.01598 2.58255e+21 1.7174e-05 -2.74665 -0.366606 2.48983 
0.0120312 0.00478125 1.9952 2.41862e+21 1.60838e-05 0.0280946 -3.19599 0.0742939 
0.00546875 0.00534375 2.15557 3.28154e+21 2.18223e-05 2.57174 6.64722 -0.984564 
0.00546875 0.00553125 1.9986 3.27863e+21 2.18029e-05 4.37594 -1.21226 -2.74727 
0.00546875 0.00571875 1.98879 3.11526e+21 2.07164e-05 2.72865 1.1943 -4.45882 
0.00546875 0.00590625 1.93 3.0637e+21 2.03736e-05 -0.580541 4.93562 -5.26867 
0.0120312 0.00534375 1.87725 2.51535e+21 1.67271e-05 0.103513 -3.95429 -2.21895 
0.0120312 0.00553125 1.86569 2.37953e+21 1.58239e-05 -3.58931 4.74285 3.87516 
0.0120312 0.00571875 2.01982 2.45868e+21 1.63502e-05 -1.3817 3.65014 -0.0391853 
0.0120312 0.00590625 2.07755 2.48883e+21 1.65507e-05 -0.103374 -1.38277 4.39671 
0.00546875 0.00759375 1.94623 3.15613e+21 2.09883e-05 -3.01891 10.3231 0.837294 
0.00546875 0.00778125 1.969 3.05954e+21 2.0346e-05 1.28484 4.40026 -7.62002 
0.00546875 0.00796875 2.01595 3.03768e+21 2.02006e-05 -4.2199 -0.763191 1.02571 
0.00546875 0.00815625 2.03298 2.97765e+21 1.98013e-05 0.204013 2.90937 -0.0942991 
0.0120312 0.00778125 1.94133 2.54363e+21 1.69152e-05 -1.78612 -5.68931 -0.0984624 
0.0120312 0.00815625 2.10251 2.50994e+21 1.66911e-05 -1.27862 -0.977978 -2.53219 
0.00546875 0.00834375 2.03923 3.02084e+21 2.00886e-05 0.518389 3.37152 -5.1361 
0.00546875 0.00853125 1.97295 3.19792e+21 2.12662e-05 2.11042 3.16827 -1.32262 
0.00546875 0.00871875 1.90366 2.91382e+21 1.93769e-05 -3.14014 3.06255 -2.2288 
0.00546875 0.00890625 1.96249 3.144e+21 2.09076e-05 -2.35017 1.75933 -1.41559 
0.0120312 0.00834375 2.00483 2.52056e+21 1.67617e-05 3.16945 1.99161 -1.19303 
0.00546875 0.0105937 1.95218 2.91467e+21 1.93826e-05 1.55771 4.66464 0.370141 
0.00546875 0.0107812 1.96532 2.69355e+21 1.79121e-05 5.13744 -0.0514615 -2.20225 
0.00546875 0.0109687 1.92387 2.84416e+21 1.89137e-05 1.59199 2.2135 -0.253671 
0.00546875 0.0111562 1.98659 2.68894e+21 1.78815e-05 2.36921 3.83252 1.4258 
0.00546875 0.0113437 2.06592 2.81e+21 1.86865e-05 4.79083 4.54624 -1.18459 
0.00546875 0.0115312 1.99775 2.85091e+21 1.89585e-05 -1.77233 2.28914 -0.602975 
0.00546875 0.0117188 1.99138 2.76439e+21 1.83832e-05 -0.458798 4.88744 -2.47899 
0.00546875 0.0119063 2.01259 2.89867e+21 1.92762e-05 1.41334 2.98349 3.12242 
0.0120312 0.00309375 1.87916 2.33052e+21 1.54979e-05 1.11647 -5.11073 -1.06504 
0.0120312 0.00328125 1.87087 2.54429e+21 1.69195e-05 3.84083 2.3373 -0.0715 
0.0120312 0.00384375 1.91888 2.43696e+21 1.62058e-05 -0.413765 -0.801369 -1.00399 
0.0120312 0.00403125 1.99588 2.39792e+21 1.59462e-05 -2.01645 -4.14391 0.831441 
0.0120312 0.00421875 1.97339 2.37657e+21 1.58042e-05 2.97904 6.3601 0.503734 
0.0120312 0.00440625 2.10451 2.39329e+21 1.59154e-05 1.90585 -0.362935 1.78713 
0.0185937 0.00121875 2.06493 2.43248e+21 1.6176e-05 5.09789 6.88604 -1.33306 
0.0207812 0.00121875 1.98675 2.29876e+21 1.52867e-05 -0.0477404 1.08139 -2.36812 
0.0185937 0.00140625 1.94441 2.40616e+21 1.6001e-05 0.14076 -2.7749 -2.67226 
0.0317187 0.00121875 2.01217 2.41019e+21 1.60278e-05 -0.469701 -2.47082 0.83557 
0.0339062 0.00121875 1.9279 2.48979e+21 1.65571e-05 1.40039 -1.14828 -1.3532 
0.0339062 0.00140625 2.02272 2.37581e+21 1.57991e-05 7.65359 0.679655 3.30299 
0.0120312 0.00496875 2.10199 2.55245e+21 1.69738e-05 1.72201 -3.32089 -4.59875 
0.0120312 0.00515625 1.96438 2.33955e+21 1.5558e-05 1.62115 -3.19373 3.83554 
0.0185937 0.00178125 1.96673 2.54006e+21 1.68914e-05 4.42975 -1.43536 -1.30795 
0.0229687 0.00159375 1.93464 2.45421e+21 1.63205e-05 2.82318 -1.86922 0.907139 
0.0251562 0.00159375 1.96723 2.46151e+21 1.6369e-05 2.33594 0.903267 -0.462684 
0.0295312 0.00159375 1.93044 2.55647e+21 1.70005e-05 -2.36146 0.562573 2.24613 
0.0404687 0.00159375 1.9771 2.36656e+21 1.57376e-05 2.60889 -0.752117 0.628586 
0.0404687 0.00178125 2.04975 2.37668e+21 1.58049e-05 1.70779 -2.05572 1.02259 
0.0492187 0.00159375 1.99766 2.38116e+21 1.58347e-05 -0.507169 -0.508294 0.299528 
0.0514062 0.00159375 2.00281 2.54916e+21 1.69519e-05 3.24307 1.46908 -2.04275 
0.00492187 0.000609375 1.8273 1.15129e+22 7.65608e-05 43.1184 -2.08272 -0.67011 
0.00601562 0.000609375 1.78002 8.86391e+21 5.8945e-05 48.9284 3.25369 2.52435 
0.00492187 0.000703125 1.92965 1.08829e+22 7.23714e-05 43.0562 -1.87834 -3.09259 
0.00601562 0.000703125 1.87585 8.18978e+21 5.4462e-05 47.0089 2.55834 -6.06269 
0.00492187 0.000984375 1.91182 1.14632e+22 7.62301e-05 39.2319 -1.4888 -1.08485 
0.00601562 0.000984375 1.8154 8.84572e+21 5.8824e-05 39.864 1.18121 3.57337 
0.00492187 0.00107813 1.95088 1.07543e+22 7.15161e-05 33.2289 -2.37807 -1.15415 
0.00601562 0.00107813 1.82686 8.81075e+21 5.85915e-05 39.587 1.37797 3.21609 
0.00273437 0.00117188 2.06899 1.38786e+22 9.22924e-05 28.8359 -3.7322 3.11641 
0.00382812 0.00117188 1.93929 1.25959e+22 8.37629e-05 22.3848 -3.22702 -0.643305 
0.00273437 0.00126563 1.8523 1.70899e+22 0.000113648 11.4228 2.71315 3.42898 
0.00273437 0.00135937 1.71867 1.51712e+22 0.000100888 20.2843 -25.6153 10.0964 
0.00273437 0.00145312 1.87139 1.60386e+22 0.000106656 24.1348 -8.43736 -2.10141 
0.00492187 0.00117188 1.87755 1.08343e+22 7.20484e-05 28.8289 -1.65412 2.08705 
0.00601562 0.00117188 1.82815 8.18536e+21 5.44327e-05 39.0558 2.10822 -2.54231 
0.00492187 0.00126563 2.01423 1.07063e+22 7.1197e-05 21.8847 -2.07038 -4.71159 
0.00601562 0.00126563 1.85384 8.2045e+21 5.45599e-05 34.635 5.68551 1.30108 
0.00492187 0.00135937 1.87846 1.07672e+22 7.16019e-05 25.0998 0.176662 -0.339286 
0.00601562 0.00135937 1.86667 7.22762e+21 4.80637e-05 28.9323 4.94317 -0.205757 
0.00601562 0.00145312 1.8341 8.09649e+21 5.38417e-05 23.793 2.75723 3.09089 
0.00710937 0.00304688 1.97622 3.35708e+21 2.23246e-05 -3.29965 8.98729 3.68807 
0.00820312 0.00304688 2.01996 3.65254e+21 2.42894e-05 -0.174665 17.2652 2.18132 
0.00710937 0.00314063 1.94808 3.4595e+21 2.30056e-05 -1.27445 10.6852 1.33118 
0.00820312 0.00314063 1.9665 3.87958e+21 2.57992e-05 2.02699 16.1367 -2.5798 
0.00710937 0.00323438 2.09759 3.19606e+21 2.12538e-05 -6.3151 9.05704 1.31364 
0.00710937 0.00332813 2.00274 3.42316e+21 2.2764e-05 -1.76536 11.9508 1.31287 
0.00820312 0.00332813 2.02527 3.47446e+21 2.31052e-05 8.19054 16.0068 -1.68792 
0.00710937 0.00342187 1.97805 3.32484e+21 2.21102e-05 -3.30602 11.4306 1.66421 
0.00820312 0.00342187 1.97128 3.63328e+21 2.41613e-05 0.00144458 9.80863 -2.10939 
0.00710937 0.00351562 1.94088 3.37304e+21 2.24307e-05 -0.862146 8.20884 0.83551 
0.00820312 0.00351562 1.89226 3.25825e+21 2.16674e-05 1.86796 13.4862 -0.0492085 
0.00710937 0.00360937 1.91914 3.19082e+21 2.1219e-05 -3.22939 7.01451 -1.44004 
0.00820312 0.00360937 1.9444 3.27253e+21 2.17623e-05 3.93916 15.474 0.614067 
0.00710937 0.00370312 2.09975 3.34895e+21 2.22705e-05 -4.9939 13.3003 -5.15223 
0.00820312 0.00370312 1.88562 3.38668e+21 2.25214e-05 -1.21459 13.6978 0.516121 
0.00710937 0.00379687 1.98271 3.54424e+21 2.35692e-05 -2.59583 9.21354 3.0005 
0.00820312 0.00379687 1.91573 3.54424e+21 2.35692e-05 -4.68759 10.2948 2.13372 
0.00820312 0.00389062 1.97607 3.38304e+21 2.24972e-05 -1.61757 6.6435 0.71727 
0.00710937 0.00398438 1.95891 3.3424e+21 2.22269e-05 0.814259 9.16545 -4.63013 
0.00820312 0.00407813 1.99844 3.47108e+21 2.30827e-05 1.28221 11.0363 3.10363 
0.00820312 0.00417188 1.98239 3.28147e+21 2.18218e-05 -0.764227 11.5659 -4.12556 
0.00710937 0.00426563 1.98135 3.31851e+21 2.20681e-05 -1.10976 11.3403 0.245937 
0.00820312 0.00426563 1.98674 3.23482e+21 2.15115e-05 -0.833151 8.55001 0.484138 
0.00710937 0.00435938 2.01639 3.29343e+21 2.19013e-05 -0.842569 8.30087 1.5393 
0.0158594 0.00379687 2.04246 2.34648e+21 1.56041e-05 -0.0303842 -3.22022 2.98726 
0.0169531 0.00379687 2.02434 2.38327e+21 1.58487e-05 0.0581808 -0.0938546 3.81034 
0.0158594 0.00389062 1.92763 2.53329e+21 1.68464e-05 3.51869 -6.52997 5.41899 
0.0169531 0.00389062 2.04027 2.25403e+21 1.49893e-05 2.0779 -0.175398 -2.60339 
0.0136719 0.00623438 2.00489 2.51703e+21 1.67383e-05 -1.66502 -3.84061 -2.43478 
0.0136719 0.00632813 2.04562 2.51408e+21 1.67187e-05 1.62377 -3.46361 -2.94467 
0.0147656 0.00632813 2.01092 2.49937e+21 1.66208e-05 4.70063 -3.09912 -0.728969 
0.0169531 0.00623438 2.03723 2.43239e+21 1.61754e-05 3.66956 -2.48058 -1.03701 
0.0158594 0.00632813 1.98058 2.48465e+21 1.65229e-05 0.764271 -0.248098 1.29359 
0.0169531 0.00632813 2.03813 2.54597e+21 1.69307e-05 2.50075 2.557 -0.26961 
0.0136719 0.00660938 2.00475 2.4799e+21 1.64913e-05 -5.28846 2.86834 3.24836 
0.0147656 0.00670313 2.03831 2.52163e+21 1.67688e-05 1.87273 -2.97938 1.11737 
0.0169531 0.00660938 1.93886 2.43058e+21 1.61634e-05 0.967005 -0.392002 2.32241 
0.0169531 0.00670313 2.00241 2.48921e+21 1.65533e-05 1.61849 -2.43205 1.12597 
0.0136719 0.00679687 2.06202 2.45488e+21 1.63249e-05 1.15057 0.115394 -0.366979 
0.0147656 0.00679687 1.93584 2.43433e+21 1.61883e-05 1.41112 -4.53577 1.43752 
0.0147656 0.00689062 1.96954 2.42373e+21 1.61178e-05 3.6824 -4.02483 -3.22809 
0.0158594 0.00679687 2.07324 2.46173e+21 1.63705e-05 1.95817 -0.30567 -1.57314 
0.0169531 0.00689062 2.04162 2.59042e+21 1.72263e-05 6.84358 -0.703684 0.236935 
0.0158594 0.00707812 2.03713 2.58539e+21 1.71929e-05 -2.21028 0.294722 -0.786755 
0.00929687 0.00717187 1.942 3.02564e+21 2.01205e-05 0.981922 9.96376 1.34545 
0.0103906 0.00717187 0 0 0 0 0 0 
0.00929687 0.00726562 2.00446 3.21126e+21 2.13549e-05 0.019799 2.23559 2.61996 
0.0103906 0.00726562 0 0 0 0 0 0 
0.0136719 0.00745312 1.94882 2.41782e+21 1.60785e-05 0.897482 -0.213463 3.02568 
0.00710937 0.0127031 2.01587 2.88315e+21 1.91729e-05 -1.96522 -1.6171 -1.86517 
0.0125781 0.0127031 2.02806 2.53423e+21 1.68526e-05 2.93065 -4.24606 1.76433 
0.0147656 0.0127031 1.92106 2.71262e+21 1.80389e-05 0.233569 1.64581 -0.866421 
0.0158594 0.0127031 2.05953 2.40306e+21 1.59803e-05 4.0127 -3.64405 1.53225 
0.0169531 0.0127031 1.98141 2.3401e+21 1.55616e-05 -1.93885 -2.99492 -5.84176 
0.0333594 0.00435938 2.1209 2.55641e+21 1.70001e-05 0.976993 -0.468662 -0.457708 
0.0344531 0.00435938 1.97147 2.55997e+21 1.70238e-05 -0.752829 -3.1804 -2.12878 
0.0333594 0.00445313 2.00487 2.48865e+21 1.65495e-05 -0.80698 -1.48511 -1.29859 
0.0344531 0.00445313 1.96096 2.50608e+21 1.66654e-05 -3.89392 -2.40492 3.16945 
0.0213281 0.00623438 1.96834 2.3328e+21 1.55131e-05 -1.10801 0.0863948 -1.78918 
0.0213281 0.00632813 2.06193 2.4822e+21 1.65066e-05 5.97917 -1.60199 1.14853 
0.0224219 0.00604688 1.93228 2.38973e+21 1.58917e-05 0.393346 -2.52753 -1.67459 
0.0246094 0.00604688 1.92309 2.41284e+21 1.60454e-05 1.88519 -1.20595 -2.4616 
0.0257031 0.00604688 2.11596 2.38973e+21 1.58917e-05 1.92382 0.569712 -5.33864 
0.0246094 0.00614063 2.02536 2.55041e+21 1.69602e-05 3.35638 1.08373 4.08387 
0.0224219 0.00623438 2.09668 2.37014e+21 1.57615e-05 5.40177 -2.15341 -4.64967 
0.0235156 0.00623438 1.9938 2.41496e+21 1.60595e-05 3.07209 4.52632 1.33674 
0.0224219 0.00632813 1.94904 2.45522e+21 1.63272e-05 -0.65818 -3.22608 -0.265764 
0.0257031 0.00623438 1.95645 2.36268e+21 1.57118e-05 4.53863 -2.23598 0.106435 
0.0246094 0.00632813 2.00443 2.41597e+21 1.60662e-05 -0.359053 -1.88826 -2.65382 
0.0191406 0.00670313 2.00729 2.51468e+21 1.67226e-05 5.27362 0.592195 -2.20644 
0.0202344 0.00660938 1.92955 2.49399e+21 1.6585e-05 6.27096 -2.11462 0.195917 
0.0224219 0.00642188 1.98781 2.3662e+21 1.57352e-05 0.799546 2.77381 -1.77214 
0.0224219 0.00651563 2.08714 2.50129e+21 1.66336e-05 1.63017 3.3397 2.60651 
0.0246094 0.00660938 2.04677 2.53626e+21 1.68661e-05 1.56211 -2.49629 -1.40798 
0.0257031 0.00670313 2.02278 2.38733e+21 1.58757e-05 0.110676 1.36815 -2.9013 
0.0300781 0.00623438 1.97444 2.42492e+21 1.61257e-05 1.12837 -1.66605 0.556106 
0.0289844 0.00632813 1.98341 2.45767e+21 1.63435e-05 0.439071 0.349376 1.98723 
0.0311719 0.00623438 2.05171 2.53944e+21 1.68873e-05 3.98788 1.61646 1.75224 
0.0322656 0.00623438 1.98856 2.47471e+21 1.64568e-05 -0.182467 1.46079 0.805659 
0.0333594 0.00623438 2.00407 2.5494e+21 1.69535e-05 3.05275 -0.653458 4.52863 
0.0333594 0.00632813 1.89707 2.46993e+21 1.64251e-05 0.843503 -2.09366 -4.20236 
0.0267969 0.00642188 1.95207 2.42179e+21 1.61049e-05 2.08175 -0.571955 2.37827 
0.0289844 0.00642188 2.01481 2.37345e+21 1.57835e-05 6.06912 -2.49484 1.36751 
0.0333594 0.00642188 1.8753 2.3952e+21 1.59281e-05 1.26206 2.37633 3.05776 
0.0344531 0.00651563 1.92989 2.50844e+21 1.66811e-05 -0.653515 2.40795 -1.79031 
0.0333594 0.00660938 2.01006 2.46111e+21 1.63664e-05 0.817451 -2.28142 1.69495 
0.0344531 0.00670313 1.91373 2.32018e+21 1.54292e-05 5.47211 2.87221 4.41088 
0.0180469 0.00689062 1.97866 2.45977e+21 1.63575e-05 0.547169 -0.199572 0.130915 
0.0213281 0.00679687 2.01286 2.54394e+21 1.69172e-05 5.96809 -2.1936 -3.45605 
0.0180469 0.00698437 1.92857 2.56009e+21 1.70246e-05 -0.0912012 -1.9278 -3.37594 
0.0224219 0.00689062 1.98033 2.50933e+21 1.6687e-05 0.694969 1.09524 1.44538 
0.0246094 0.00679687 1.9177 2.32928e+21 1.54897e-05 2.77507 -1.32639 4.41954 
0.0257031 0.00698437 2.01333 2.4512e+21 1.63005e-05 0.722579 0.381828 0.237082 
0.0213281 0.00735937 1.99072 2.50979e+21 1.66901e-05 1.49486 0.634717 4.12333 
0.0257031 0.00717187 2.01208 2.35682e+21 1.56728e-05 4.41029 0.755237 -1.66509 
0.0257031 0.00745312 2.05585 2.46572e+21 1.63971e-05 -0.145577 0.536866 4.01953 
0.0300781 0.00679687 2.08327 2.37495e+21 1.57934e-05 1.30485 -2.19454 -1.45265 
0.0289844 0.00689062 2.05564 2.46653e+21 1.64024e-05 0.818261 -0.937441 2.29516 
0.0300781 0.00689062 1.97307 2.44851e+21 1.62826e-05 6.7265 -3.73703 -4.84372 
0.0267969 0.00698437 2.08977 2.39786e+21 1.59458e-05 3.4054 1.44862 -5.14317 
0.0289844 0.00698437 1.97389 2.52676e+21 1.68029e-05 3.76469 -0.857859 0.319687 
0.0289844 0.00707812 1.92266 2.43408e+21 1.61867e-05 2.51689 1.14251 1.42762 
0.0300781 0.00707812 1.9203 2.43189e+21 1.61721e-05 2.11995 -2.17623 2.69541 
0.0322656 0.00679687 1.94691 2.42291e+21 1.61123e-05 2.32 0.222344 -0.532048 
0.0311719 0.00707812 1.93537 2.58539e+21 1.71929e-05 -0.72361 0.846841 0.513824 
0.0322656 0.00707812 2.04758 2.40338e+21 1.59825e-05 0.00103869 -2.29096 3.72426 
0.0333594 0.00707812 1.94858 2.38803e+21 1.58804e-05 3.78284 0.928646 -0.22774 
0.0267969 0.00726562 2.07048 2.38836e+21 1.58826e-05 1.78571 -1.32182 -3.97004 
0.0311719 0.00726562 1.95554 2.48876e+21 1.65503e-05 2.15247 3.31508 -2.48429 
0.0333594 0.00726562 2.04132 2.24736e+21 1.4945e-05 1.74809 -1.13455 -3.38615 
0.0344531 0.00726562 1.96354 2.51226e+21 1.67066e-05 0.751321 -0.521858 2.21701 
0.0180469 0.0152344 0 0 0 0 0 0 
0.0180469 0.0153281 0 0 0 0 0 0 
0.0180469 0.0154219 0 0 0 0 0 0 
0.0180469 0.0155156 0 0 0 0 0 0 
0.0180469 0.0161719 0 0 0 0 0 0 
0.0180469 0.0162656 0 0 0 0 0 0 
0.0180469 0.0184219 0 0 0 0 0 0 
0.0180469 0.0185156 0 0 0 0 0 0 
0.0180469 0.0187969 0 0 0 0 0 0 
0.0180469 0.0188906 0 0 0 0 0 0 
0.0180469 0.0189844 0 0 0 0 0 0 
0.0180469 0.0190781 0 0 0 0 0 0 
0.0180469 0.0210469 0 0 0 0 0 0 
0.0180469 0.0211406 0 0 0 0 0 0 
0.0180469 0.0212344 0 0 0 0 0 0 
0.0180469 0.0213281 0 0 0 0 0 0 
0.0180469 0.0214219 0 0 0 0 0 0 
0.0180469 0.0215156 0 0 0 0 0 0 
0.0289844 0.0216094 2.03442 2.49165e+21 1.65695e-05 1.73723 1.26802 -1.27933 
0.0289844 0.0217031 0 0 0 0 0 0 
0.0300781 0.0217031 0 0 0 0 0 0 
0.00710937 0.00154688 1.86263 4.3347e+21 2.88258e-05 28.7531 24.5804 2.49203 
0.00820312 0.00154688 1.90204 4.08385e+21 2.71576e-05 23.0404 22.0423 1.13292 
0.00710937 0.00164063 1.87488 4.01132e+21 2.66753e-05 19.9371 20.8435 5.44399 
0.00820312 0.00164063 1.97906 3.76534e+21 2.50395e-05 12.5096 25.2071 1.00299 
0.00710937 0.00210938 2.03395 3.20822e+21 2.13346e-05 7.50785 19.3506 -1.29214 
0.00820312 0.00210938 2.04343 3.76745e+21 2.50535e-05 5.27635 17.6813 1.29 
0.00710937 0.00220313 1.88047 3.40986e+21 2.26756e-05 6.95276 11.4169 1.87986 
0.00820312 0.00220313 2.10713 3.85371e+21 2.56272e-05 6.39444 19.973 -2.20568 
0.00710937 0.00248438 2.02384 3.26125e+21 2.16873e-05 1.29675 10.9908 -0.103144 
0.00820312 0.00248438 1.93985 3.88601e+21 2.5842e-05 0.411856 14.8168 2.38501 
0.00710937 0.00257813 1.89759 3.23899e+21 2.15393e-05 2.59536 10.5986 1.62275 
0.00820312 0.00257813 1.9145 3.9795e+21 2.64637e-05 -2.71056 18.0712 -0.986892 
0.00710937 0.00267187 1.85696 3.34028e+21 2.22128e-05 2.43235 4.87466 2.75811 
0.00820312 0.00267187 1.86101 3.54941e+21 2.36036e-05 2.5359 17.4105 -1.15815 
0.00710937 0.00276562 1.9011 3.03623e+21 2.01909e-05 -3.8037 9.43272 -3.77251 
0.00820312 0.00276562 1.91197 3.7995e+21 2.52667e-05 -3.60871 15.1886 -5.27412 
0.00710937 0.00285937 1.94443 3.62064e+21 2.40773e-05 1.83112 8.25394 1.92371 
0.00820312 0.00285937 2.05778 3.75092e+21 2.49436e-05 4.86814 15.8648 -2.37072 
0.00710937 0.00295313 1.93907 3.35853e+21 2.23343e-05 -1.58636 9.59613 -1.55899 
0.00820312 0.00295313 2.02438 3.72645e+21 2.47809e-05 -0.298456 16.9766 1.01488 
0.00710937 0.00454687 2.05362 2.96304e+21 1.97042e-05 -2.70756 4.67303 -1.58723 
0.00820312 0.00454687 1.98535 3.47509e+21 2.31093e-05 -4.97211 9.59259 1.73904 
0.00820312 0.00464062 1.93492 3.41492e+21 2.27092e-05 -1.92345 11.6109 -1.09222 
0.00820312 0.00473437 1.9832 3.31779e+21 2.20633e-05 -0.816172 11.4596 -0.928016 
0.00820312 0.00482812 2.06211 3.14406e+21 2.0908e-05 -1.51657 9.86177 -1.78593 
0.00710937 0.00501562 2.0512 3.30504e+21 2.19785e-05 -1.82502 6.17553 1.7067 
0.00820312 0.00501562 2.05684 3.23387e+21 2.15052e-05 -2.39077 8.35375 0.378169 
0.00820312 0.00510937 2.01129 3.25655e+21 2.16561e-05 -2.11722 12.1783 0.202133 
0.00710937 0.00520312 1.99239 3.30825e+21 2.19999e-05 -2.13374 6.46625 0.408868 
0.00820312 0.00520312 1.88727 3.43354e+21 2.2833e-05 0.474109 7.77696 -1.60287 
0.0136719 0.00454687 1.92865 2.59437e+21 1.72525e-05 2.07467 -0.181605 -1.05676 
0.0147656 0.00454687 1.90473 2.49878e+21 1.66169e-05 -0.857997 -0.431291 2.3154 
0.0136719 0.00464062 1.92525 2.4851e+21 1.65259e-05 -2.34002 -1.4645 -0.191995 
0.0147656 0.00464062 2.03221 2.55533e+21 1.6993e-05 -0.890977 3.62683 -1.83268 
0.0136719 0.00510937 2.02297 2.43026e+21 1.61612e-05 3.59866 1.57091 -4.33047 
0.0147656 0.00510937 1.89278 2.5457e+21 1.69289e-05 -2.7028 2.71995 0.583668 
0.0136719 0.00520312 2.07179 2.48491e+21 1.65247e-05 1.3108 1.74332 -1.10696 
0.00820312 0.00567187 1.99569 3.38238e+21 2.24928e-05 -2.08578 8.31017 0.630772 
0.00929687 0.00548437 2.03755 3.36926e+21 2.24056e-05 -2.17686 6.58276 1.89407 
0.0103906 0.00548437 0 0 0 0 0 0 
0.00929687 0.00557812 2.04561 3.37897e+21 2.24701e-05 2.81331 2.94404 -2.26594 
0.0103906 0.00557812 0 0 0 0 0 0 
0.0136719 0.00529687 1.94033 2.63726e+21 1.75378e-05 2.57991 -4.00525 2.78566 
0.0147656 0.00529687 2.01123 2.49661e+21 1.66025e-05 1.2148 -1.6016 1.30159 
0.0136719 0.00539062 2.00538 2.46183e+21 1.63712e-05 0.646362 -0.833795 2.45112 
0.0158594 0.00529687 1.98118 2.54642e+21 1.69337e-05 0.171091 -0.459856 -2.68095 
0.0169531 0.00529687 2.05653 2.44386e+21 1.62517e-05 2.7135 -2.06166 -2.23348 
0.0158594 0.00539062 2.00363 2.55397e+21 1.69839e-05 0.0208165 -1.43173 -1.9448 
0.0169531 0.00539062 2.09501 2.53381e+21 1.68498e-05 0.829581 -2.58805 -0.256827 
0.0136719 0.00548437 1.98878 2.46786e+21 1.64113e-05 0.845199 0.27651 1.63917 
0.0147656 0.00548437 2.01847 2.35748e+21 1.56773e-05 0.498652 1.88798 0.0124332 
0.0136719 0.00557812 1.96963 2.35682e+21 1.56728e-05 1.24939 2.32366 -3.13796 
0.0147656 0.00557812 1.93986 2.46255e+21 1.6376e-05 -1.07576 -3.19412 -0.536281 
0.0136719 0.00567187 2.04359 2.58604e+21 1.71972e-05 -1.61292 -3.86434 2.48112 
0.0136719 0.00576562 2.00783 2.51977e+21 1.67564e-05 -1.90155 -1.03225 0.633175 
0.0147656 0.00576562 1.9583 2.52246e+21 1.67743e-05 0.430686 0.277499 0.37025 
0.0158594 0.00567187 2.01156 2.51489e+21 1.6724e-05 -2.28126 -0.436342 0.96177 
0.0169531 0.00576562 1.97652 2.57899e+21 1.71503e-05 0.0768746 -2.68008 -2.42785 
0.0169531 0.00754687 1.95977 2.49474e+21 1.659e-05 2.42829 -3.45627 -1.65034 
0.00929687 0.00792188 1.96172 3.02492e+21 2.01157e-05 -0.255757 4.06757 1.26494 
0.0103906 0.00792188 0 0 0 0 0 0 
0.0103906 0.00801563 0 0 0 0 0 0 
0.0103906 0.00810938 0 0 0 0 0 0 
0.0103906 0.00820313 0 0 0 0 0 0 
0.0136719 0.00810938 2.05458 2.44419e+21 1.62538e-05 -0.0865892 -6.02891 0.90596 
0.0103906 0.00829688 0 0 0 0 0 0 
0.0103906 0.00839063 0 0 0 0 0 0 
0.0136719 0.00829688 2.03155 2.44133e+21 1.62349e-05 -0.611157 -1.86073 -0.606909 
0.0246094 0.00473437 2.07714 2.60309e+21 1.73105e-05 2.81359 1.55264 1.06279 
0.0257031 0.00473437 2.05894 2.449e+21 1.62858e-05 3.20647 -3.6897 -2.67035 
0.0246094 0.00482812 2.08298 2.3693e+21 1.57558e-05 4.74961 -2.53579 -4.76038 
0.0257031 0.00482812 1.90867 2.30822e+21 1.53496e-05 0.632584 2.40002 -0.507841 
0.0180469 0.00510937 1.96476 2.39685e+21 1.5939e-05 4.16475 0.369156 -0.320565 
0.0180469 0.00520312 1.94097 2.52966e+21 1.68222e-05 4.6263 2.22733 0.000791153 
0.0191406 0.00520312 1.94447 2.54756e+21 1.69413e-05 -4.31603 -2.21688 2.39711 
0.0213281 0.00510937 1.93461 2.61253e+21 1.73733e-05 -2.90129 1.11998 -0.179488 
0.0202344 0.00520312 1.99535 2.49088e+21 1.65644e-05 3.62247 -0.917632 -0.860808 
0.0213281 0.00520312 1.99192 2.5237e+21 1.67826e-05 3.20108 0.969854 1.68145 
0.0289844 0.00473437 1.96314 2.39327e+21 1.59152e-05 3.62979 -3.089 1.06118 
0.0300781 0.00473437 2.08586 2.30147e+21 1.53048e-05 2.65616 3.6934 -1.12374 
0.0289844 0.00482812 1.92493 2.6297e+21 1.74875e-05 -1.66541 -0.660422 0.923615 
0.0300781 0.00482812 1.93522 2.40145e+21 1.59696e-05 1.65267 -0.0915258 -4.19497 
0.0311719 0.00454687 1.83999 2.60461e+21 1.73206e-05 -0.818701 0.250134 -3.08299 
0.0322656 0.00454687 2.03796 2.61826e+21 1.74114e-05 0.561507 3.28757 1.3017 