ITEM: TIMESTEP
500000
ITEM: NUMBER OF CELLS
39516
ITEM: BOX BOUNDS oo ao pp
0 0.12
0 0.03
-0.1 0.1
ITEM: CELLS xc yc f_out[1] f_out[2] f_out[3] f_out[4] f_out[5] f_out[6] 
0.003 0.00375 0 0 0 0 0 0 
0.003 0.00525 0 0 0 0 0 0 
0.003 0.00675 0 0 0 0 0 0 
0.003 0.00825 0 0 0 0 0 0 
0.003 0.00975 0 0 0 0 0 0 
0.003 0.01125 0 0 0 0 0 0 
0.003 0.01275 0 0 0 0 0 0 
0.003 0.01425 0 0 0 0 0 0 
0.003 0.01575 0 0 0 0 0 0 
0.003 0.01725 0 0 0 0 0 0 
0.003 0.01875 0 0 0 0 0 0 
0.003 0.02025 0 0 0 0 0 0 
0.003 0.02175 0 0 0 0 0 0 
0.003 0.02325 0 0 0 0 0 0 
0.027 0.02325 0 0 0 0 0 0 
0.003 0.02475 0 0 0 0 0 0 
0.027 0.02475 0 0 0 0 0 0 
0.003 0.02625 0 0 0 0 0 0 
0.027 0.02625 0 0 0 0 0 0 
0.003 0.02775 0 0 0 0 0 0 
0.027 0.02775 0 0 0 0 0 0 
0.003 0.02925 0 0 0 0 0 0 
0.027 0.02925 0 0 0 0 0 0 
0.009 0.01425 0 0 0 0 0 0 
0.009 0.01575 0 0 0 0 0 0 
0.009 0.01725 0 0 0 0 0 0 
0.009 0.01875 0 0 0 0 0 0 
0.009 0.02025 0 0 0 0 0 0 
0.009 0.02175 0 0 0 0 0 0 
0.009 0.02325 0 0 0 0 0 0 
0.009 0.02475 0 0 0 0 0 0 
0.009 0.02625 0 0 0 0 0 0 
0.009 0.02775 0 0 0 0 0 0 
0.009 0.02925 0 0 0 0 0 0 
0.015 0.01425 0 0 0 0 0 0 
0.015 0.01575 0 0 0 0 0 0 
0.015 0.01725 0 0 0 0 0 0 
0.015 0.01875 0 0 0 0 0 0 
0.015 0.02025 0 0 0 0 0 0 
0.015 0.02175 0 0 0 0 0 0 
0.015 0.02325 0 0 0 0 0 0 
0.015 0.02475 0 0 0 0 0 0 
0.015 0.02625 0 0 0 0 0 0 
0.015 0.02775 0 0 0 0 0 0 
0.015 0.02925 0 0 0 0 0 0 
0.021 0.02325 0 0 0 0 0 0 
0.021 0.02475 0 0 0 0 0 0 
0.021 0.02625 0 0 0 0 0 0 
0.021 0.02775 0 0 0 0 0 0 
0.021 0.02925 0 0 0 0 0 0 
0.0015 0.000375 0 0 0 0 0 0 
0.0015 0.001125 0 0 0 0 0 0 
0.0015 0.001875 0 0 0 0 0 0 
0.0015 0.002625 0 0 0 0 0 0 
0.0045 0.002625 0 0 0 0 0 0 
0.0255 0.022125 0 0 0 0 0 0 
0.0285 0.022125 0 0 0 0 0 0 
0.0105 0.000375 1.94333 5.13567e+21 3.41522e-05 5.88897 5.08046 3.20323 
0.0075 0.013125 0 0 0 0 0 0 
0.0105 0.013125 0 0 0 0 0 0 
0.0135 0.013125 0 0 0 0 0 0 
0.0165 0.013125 0 0 0 0 0 0 
0.0195 0.022125 0 0 0 0 0 0 
0.0225 0.022125 0 0 0 0 0 0 
0.00375 0.0001875 1.87027 1.2861e+22 8.55257e-05 33.3577 -5.42619 2.15687 
0.00525 0.0001875 1.78773 9.86902e+21 6.5629e-05 45.8796 -1.46073 -1.56251 
0.00375 0.0020625 0 0 0 0 0 0 
0.00525 0.0020625 0 0 0 0 0 0 
0.00675 0.0001875 1.74255 6.76043e+21 4.49569e-05 56.6892 -0.888996 0.532881 
0.00825 0.0001875 2.0103 5.16086e+21 3.43197e-05 30.9856 2.95174 -5.51162 
0.01125 0.0016875 0 0 0 0 0 0 
0.01125 0.0020625 0 0 0 0 0 0 
0.01125 0.0024375 0 0 0 0 0 0 
0.01125 0.0028125 0 0 0 0 0 0 
0.01125 0.0031875 0 0 0 0 0 0 
0.01125 0.0035625 0 0 0 0 0 0 
0.01125 0.0039375 0 0 0 0 0 0 
0.01125 0.0043125 0 0 0 0 0 0 
0.01125 0.0046875 0 0 0 0 0 0 
0.01125 0.0050625 0 0 0 0 0 0 
0.01125 0.0054375 0 0 0 0 0 0 
0.01125 0.0058125 0 0 0 0 0 0 
0.01125 0.0061875 0 0 0 0 0 0 
0.01125 0.0065625 0 0 0 0 0 0 
0.01125 0.0069375 0 0 0 0 0 0 
0.01125 0.0073125 0 0 0 0 0 0 
0.01125 0.0076875 0 0 0 0 0 0 
0.01125 0.0080625 0 0 0 0 0 0 
0.01125 0.0084375 0 0 0 0 0 0 
0.01125 0.0088125 0 0 0 0 0 0 
0.01125 0.0091875 0 0 0 0 0 0 
0.01275 0.0016875 2.13617 2.40186e+21 1.59724e-05 -0.786373 -1.34683 -0.196764 
0.01275 0.0020625 1.94808 2.41787e+21 1.60788e-05 5.7995 -0.68133 2.70604 
0.01875 0.0009375 1.85573 2.50196e+21 1.66381e-05 1.3351 -1.44155 0.243098 
0.02025 0.0009375 1.9818 2.44764e+21 1.62768e-05 0.89612 1.52968 -0.0669159 
0.01575 0.0009375 1.98163 2.31786e+21 1.54138e-05 0.436671 2.40914 1.20622 
0.01725 0.0009375 1.91508 2.40539e+21 1.59958e-05 1.34866 -1.88796 3.44832 
0.003375 0.00046875 1.98258 1.32476e+22 8.80969e-05 31.8392 -0.51182 0.0580451 
0.004125 0.00046875 1.93879 1.36416e+22 9.07165e-05 34.4638 2.44963 3.34107 
0.003375 0.00065625 1.86261 1.35926e+22 9.03906e-05 25.1554 -4.80491 -3.3554 
0.004125 0.00065625 1.99899 1.23654e+22 8.22298e-05 33.5856 -2.04422 -0.272274 
0.004875 0.00046875 1.89772 1.08408e+22 7.20915e-05 44.6404 -4.11726 1.67568 
0.005625 0.00046875 1.70682 8.69198e+21 5.78017e-05 53.1423 0.480702 6.25064 
0.004875 0.00065625 1.81078 1.07098e+22 7.12199e-05 41.9253 0.269923 -2.17427 
0.005625 0.00065625 1.71362 8.8127e+21 5.86045e-05 51.9534 3.17649 -4.42437 
0.003375 0.00084375 1.91351 1.31488e+22 8.74396e-05 23.727 -6.48375 1.27644 
0.005625 0.00084375 1.76252 9.2017e+21 6.11913e-05 45.3325 -1.47734 -1.91102 
0.005625 0.00103125 1.85589 8.42859e+21 5.60501e-05 41.5172 0.865707 -2.67675 
0.005625 0.00140625 1.93445 8.42639e+21 5.60355e-05 24.4674 -0.162623 1.88025 
0.024375 0.00346875 1.98102 2.3655e+21 1.57306e-05 2.50674 3.14329 -0.0798794 
0.025125 0.00346875 2.0124 2.36224e+21 1.57089e-05 2.80598 -3.00778 0.887088 
0.024375 0.00365625 2.05508 2.60017e+21 1.72911e-05 6.11198 -2.3153 -2.24287 
0.025125 0.00365625 1.91595 2.51349e+21 1.67147e-05 4.29798 -3.63676 -1.66936 
0.024375 0.0216562 2.11414 2.40694e+21 1.60062e-05 1.08901 3.52022 6.66466 
0.025125 0.0216562 2.02984 2.47132e+21 1.64343e-05 -2.37841 -1.01354 -1.1503 
0.025875 0.0216562 1.98882 2.47132e+21 1.64343e-05 -0.68326 -5.61263 -0.912369 
0.026625 0.0216562 1.96723 2.48562e+21 1.65294e-05 3.36913 0.516295 -1.94933 
0.027375 0.0216562 1.97751 2.5643e+21 1.70526e-05 -2.83307 2.09887 0.0262819 
0.028125 0.0216562 1.95598 2.54642e+21 1.69337e-05 0.0130598 0.118055 -2.03399 
0.028875 0.0216562 2.07149 2.52854e+21 1.68148e-05 -2.08933 4.91451 4.47999 
0.029625 0.0216562 1.97236 2.59291e+21 1.72429e-05 0.728979 1.87716 -2.14966 
0.006375 0.00084375 1.65169 6.80067e+21 4.52245e-05 54.085 9.07886 0.636738 
0.007125 0.00084375 1.74848 5.08374e+21 3.38068e-05 56.2591 4.38258 -1.15287 
0.006375 0.00103125 1.6651 6.50801e+21 4.32783e-05 51.2515 7.40754 -0.699186 
0.007125 0.00103125 1.86484 4.73011e+21 3.14552e-05 47.0642 16.5121 -0.578136 
0.006375 0.00121875 1.78312 6.2404e+21 4.14986e-05 47.437 8.56368 2.40076 
0.007125 0.00121875 1.73616 5.0146e+21 3.33471e-05 46.2001 21.9757 1.58336 
0.007125 0.00140625 1.70904 4.63572e+21 3.08276e-05 42.9112 21.9208 -0.973709 
0.007875 0.00159375 2.03225 4.28208e+21 2.84758e-05 22.7275 20.427 2.2049 
0.008625 0.00159375 1.91966 4.25367e+21 2.82869e-05 9.52977 19.4363 2.35702 
0.007875 0.00178125 1.94989 4.23798e+21 2.81825e-05 13.1802 24.6226 -2.19609 
0.008625 0.00178125 1.96922 4.1935e+21 2.78868e-05 10.1016 17.2348 4.38277 
0.007875 0.00196875 1.8655 3.93209e+21 2.61484e-05 11.465 16.7498 -0.148678 
0.007875 0.00215625 1.93368 3.8631e+21 2.56896e-05 4.73473 14.8933 -0.803915 
0.008625 0.00215625 1.99938 3.98907e+21 2.65273e-05 7.79495 21.7659 4.02218 
0.007875 0.00271875 2.0059 3.35524e+21 2.23123e-05 -3.62263 12.6844 0.502555 
0.008625 0.00271875 1.98047 3.69659e+21 2.45823e-05 -0.263405 18.7441 0.691183 
0.007875 0.00290625 1.95941 3.57882e+21 2.37992e-05 -2.54818 18.5491 1.40994 
0.008625 0.00290625 2.03705 3.51651e+21 2.33848e-05 2.77997 24.1416 -2.53072 
0.007875 0.00309375 1.94461 3.67287e+21 2.44246e-05 -3.25561 13.6595 2.33393 
0.008625 0.00309375 2.02755 3.63629e+21 2.41813e-05 -3.11117 14.8168 -1.47085 
0.007875 0.00328125 1.91763 3.50784e+21 2.33271e-05 -2.89525 16.4617 1.78453 
0.008625 0.00346875 2.07882 3.64776e+21 2.42576e-05 1.40586 15.0741 0.330206 
0.007875 0.00384375 1.91697 3.24183e+21 2.15581e-05 -2.25222 13.6369 3.26525 
0.006375 0.00421875 1.89231 3.18907e+21 2.12073e-05 -2.12001 1.42778 -1.79916 
0.006375 0.00440625 1.94449 3.35196e+21 2.22905e-05 5.03498 7.0266 -1.1351 
0.006375 0.00459375 1.97319 3.229e+21 2.14729e-05 0.0330901 3.16691 1.85222 
0.006375 0.00478125 2.0689 3.26659e+21 2.17229e-05 -2.13376 1.17611 0.918427 
0.006375 0.00496875 2.06372 3.38249e+21 2.24936e-05 -2.56389 4.78594 3.76199 
0.006375 0.00515625 1.95309 3.46938e+21 2.30714e-05 1.21942 5.37659 1.19803 
0.006375 0.00534375 1.97561 3.08953e+21 2.05454e-05 4.0321 8.47478 -1.43902 
0.006375 0.00553125 1.89365 3.23801e+21 2.15328e-05 2.24526 4.49185 2.51297 
0.006375 0.00571875 2.00407 2.96857e+21 1.9741e-05 1.64694 6.30227 -3.07573 
0.006375 0.00590625 1.98499 3.24081e+21 2.15514e-05 1.31886 3.9377 2.04505 
0.006375 0.00609375 2.01486 3.05752e+21 2.03325e-05 -2.71025 4.88127 -1.02514 
0.006375 0.00628125 2.03924 3.0203e+21 2.0085e-05 3.36566 5.53143 0.172142 
0.006375 0.00646875 1.91067 3.14271e+21 2.0899e-05 3.10144 2.41229 -0.0224376 
0.006375 0.00665625 1.92873 3.21677e+21 2.13915e-05 -2.56147 5.52666 -0.375004 
0.010125 0.00646875 0 0 0 0 0 0 
0.010125 0.00665625 0 0 0 0 0 0 
0.006375 0.00684375 2.01524 3.13484e+21 2.08467e-05 1.92425 3.57502 -1.38558 
0.006375 0.00703125 2.08246 3.05728e+21 2.03309e-05 1.49765 3.15589 -2.26722 
0.006375 0.00796875 2.04558 2.98254e+21 1.98339e-05 0.473244 5.7256 -0.794472 
0.010125 0.00796875 0 0 0 0 0 0 
0.010125 0.00815625 0 0 0 0 0 0 
0.010125 0.00834375 0 0 0 0 0 0 
0.010125 0.00853125 0 0 0 0 0 0 
0.010125 0.00871875 0 0 0 0 0 0 
0.010125 0.00890625 0 0 0 0 0 0 
0.010125 0.00909375 0 0 0 0 0 0 
0.010125 0.00928125 0 0 0 0 0 0 
0.010125 0.00946875 2.05723 2.48284e+21 1.65109e-05 -3.74607 -2.63012 -0.743575 
0.010875 0.00946875 2.04095 2.40761e+21 1.60106e-05 0.221268 1.62451 5.6959 
0.011625 0.00946875 1.94701 2.69488e+21 1.79209e-05 -1.80929 -0.689526 -0.348154 
0.013875 0.00421875 1.951 2.49492e+21 1.65912e-05 -0.534766 1.27576 0.305719 
0.014625 0.00421875 2.04119 2.41176e+21 1.60382e-05 1.23353 2.92359 4.14999 
0.013875 0.00440625 1.952 2.51204e+21 1.67051e-05 1.38079 2.19411 0.129407 
0.013875 0.00496875 2.04791 2.40988e+21 1.60257e-05 -0.423199 -2.82896 -0.955823 
0.015375 0.00496875 2.03116 2.46455e+21 1.63893e-05 -0.29481 0.84102 -3.05462 
0.012375 0.00721875 1.95322 2.49283e+21 1.65773e-05 5.90621 0.133821 7.21265 
0.012375 0.00740625 1.82928 2.10881e+21 1.40236e-05 -2.36708 -0.0525659 9.82971 
0.012375 0.00871875 2.21337 2.21973e+21 1.47612e-05 13.2111 6.79607 -0.574886 
0.012375 0.00890625 2.30142 2.15393e+21 1.43237e-05 9.20975 -1.82706 3.65622 
0.012375 0.00909375 1.81013 2.42688e+21 1.61388e-05 5.22323 -0.534652 3.35828 
0.012375 0.00928125 2.05492 2.0852e+21 1.38666e-05 -2.4172 2.68337 -5.03763 
0.012375 0.00946875 1.85191 2.51779e+21 1.67433e-05 -1.81615 -2.3096 -0.222446 
0.021375 0.00309375 2.13045 2.60101e+21 1.72967e-05 5.94621 -1.2034 4.03102 
0.022125 0.00309375 1.96381 2.31567e+21 1.53992e-05 -1.90864 1.63459 1.62233 
0.021375 0.00328125 1.90027 2.54551e+21 1.69276e-05 -0.291611 0.0966134 0.255941 
0.022125 0.00328125 1.90917 2.46618e+21 1.64001e-05 0.588927 -0.14122 -0.987813 
0.018375 0.00421875 2.03665 2.39566e+21 1.59311e-05 3.19054 0.473631 0.321762 
0.019125 0.00421875 1.95635 2.48151e+21 1.6502e-05 2.03057 0.822888 -0.95115 
0.018375 0.00440625 1.93274 2.50948e+21 1.6688e-05 0.495077 -4.5669 -3.32341 
0.019125 0.00440625 2.06509 2.56342e+21 1.70467e-05 2.56244 -1.61848 0.801405 
0.022875 0.00421875 2.09936 2.44931e+21 1.62879e-05 1.42234 -0.689565 1.54506 
0.023625 0.00421875 1.91767 2.48151e+21 1.6502e-05 1.79851 -1.04579 -0.829935 
0.022875 0.00440625 1.937 2.41701e+21 1.60731e-05 5.10153 -0.191551 -1.46343 
0.023625 0.00440625 1.8775 2.42471e+21 1.61243e-05 1.61904 -2.87673 0.317848 
0.019875 0.00478125 1.99177 2.44995e+21 1.62921e-05 1.4896 -0.32516 -2.77796 
0.020625 0.00478125 1.97509 2.5825e+21 1.71736e-05 1.30107 2.99592 1.14171 
0.020625 0.00515625 2.00485 2.57687e+21 1.71362e-05 5.54907 0.166924 -0.429411 
0.020625 0.00534375 1.96083 2.4928e+21 1.65771e-05 6.65917 -3.31192 0.0821695 
0.018375 0.0139688 0 0 0 0 0 0 
0.018375 0.0141563 0 0 0 0 0 0 
0.018375 0.0158438 0 0 0 0 0 0 
0.018375 0.0160313 0 0 0 0 0 0 
0.018375 0.0165937 0 0 0 0 0 0 
0.018375 0.0167812 0 0 0 0 0 0 
0.018375 0.0180937 0 0 0 0 0 0 
0.018375 0.0182812 0 0 0 0 0 0 
0.018375 0.0192187 0 0 0 0 0 0 
0.018375 0.0194062 0 0 0 0 0 0 
0.018375 0.0203437 0 0 0 0 0 0 
0.018375 0.0205312 0 0 0 0 0 0 
0.018375 0.0207187 0 0 0 0 0 0 
0.018375 0.0209062 0 0 0 0 0 0 
0.019875 0.0216562 2.09098 2.57861e+21 1.71477e-05 -4.619 -0.903998 -2.56021 
0.020625 0.0216562 2.07467 2.47489e+21 1.6458e-05 2.32174 -3.32215 -3.16907 
0.021375 0.0216562 2.09856 2.33183e+21 1.55067e-05 0.609109 -1.54449 -2.99755 
0.022125 0.0216562 1.9186 2.46416e+21 1.63867e-05 -2.42264 1.33548 1.6428 
0.022875 0.0216562 2.04634 2.40694e+21 1.60062e-05 -4.0146 2.25315 -1.87876 
0.023625 0.0216562 1.92774 2.44628e+21 1.62678e-05 1.65546 4.02397 2.71459 
0.02475 0.0009375 1.92958 2.36917e+21 1.5755e-05 3.86505 -4.03576 -3.6719 
0.02625 0.0009375 2.06336 2.51102e+21 1.66983e-05 5.76256 -0.537364 -0.156302 
0.01275 0.0009375 1.93837 2.55214e+21 1.69717e-05 3.00145 -1.7197 3.10443 
0.01275 0.0013125 2.06071 2.45755e+21 1.63427e-05 -1.37009 0.264237 -0.936112 
0.025875 0.00346875 1.92333 2.63631e+21 1.75314e-05 -0.94581 3.81207 1.21726 
0.026625 0.00346875 1.95622 2.58084e+21 1.71626e-05 0.951342 3.59367 -1.48015 
0.025875 0.00365625 2.03995 2.55683e+21 1.70029e-05 0.978346 1.02347 2.02438 
0.026625 0.00365625 2.01843 2.50421e+21 1.6653e-05 -1.80739 -1.82718 3.11602 
0.024375 0.00421875 1.92968 2.55662e+21 1.70015e-05 0.393449 -0.384398 0.356303 
0.025125 0.00421875 1.92549 2.61564e+21 1.7394e-05 3.55166 -1.0241 -0.433672 
0.024375 0.00440625 1.96318 2.38105e+21 1.5834e-05 3.78283 -2.50558 1.98017 
0.025125 0.00440625 1.99246 2.46838e+21 1.64147e-05 4.62624 -6.17269 1.94905 
0.028875 0.00421875 2.06746 2.41176e+21 1.60382e-05 0.49732 -3.06581 -0.702119 
0.029625 0.00440625 1.9805 2.43242e+21 1.61756e-05 1.99865 3.01104 -0.2447 
0.024375 0.00459375 2.01839 2.49574e+21 1.65967e-05 0.735239 1.6678 -1.14213 
0.025125 0.00515625 2.08642 2.37932e+21 1.58225e-05 3.66672 -3.01944 0.448391 
0.026625 0.00496875 1.82051 2.34383e+21 1.55865e-05 2.40291 0.371255 0.315535 
0.029625 0.00534375 1.99898 2.54787e+21 1.69433e-05 0.287622 1.85168 1.38318 
0.007875 0.00121875 1.97552 4.61529e+21 3.06917e-05 30.8379 20.6874 1.80236 
0.008625 0.00121875 1.91829 4.48529e+21 2.98271e-05 21.362 14.828 0.431509 
0.007875 0.00140625 1.96005 4.32185e+21 2.87403e-05 28.7461 19.1399 -3.0217 
0.008625 0.00140625 1.96328 4.66792e+21 3.10416e-05 14.7043 16.6922 -0.759278 
0.006375 0.00234375 1.99304 3.10557e+21 2.06521e-05 -0.467797 7.02128 -1.18608 
0.007125 0.00234375 1.85353 3.46231e+21 2.30243e-05 4.53185 15.5755 3.45435 
0.006375 0.00253125 2.01792 3.15218e+21 2.0962e-05 2.37635 4.79026 1.51673 
0.007125 0.00253125 1.94379 3.70214e+21 2.46192e-05 -0.768081 13.3605 -0.618237 
0.007875 0.00234375 1.98361 3.6458e+21 2.42446e-05 5.05604 15.0225 0.188133 
0.008625 0.00234375 1.94967 3.90656e+21 2.59786e-05 1.15227 16.4109 -0.299652 
0.007875 0.00253125 1.98109 3.64402e+21 2.42327e-05 4.27651 17.9136 -1.48035 
0.008625 0.00253125 1.98513 3.79604e+21 2.52436e-05 -1.15222 18.9727 0.368868 
0.006375 0.00309375 1.98107 3.19639e+21 2.1256e-05 2.25655 9.59833 -0.837628 
0.007125 0.00309375 1.93764 3.60337e+21 2.39624e-05 -2.42038 8.03527 1.54495 
0.006375 0.00328125 2.09046 3.25949e+21 2.16756e-05 -0.521309 6.85664 -2.97371 
0.007125 0.00328125 1.87985 3.31468e+21 2.20426e-05 0.217973 7.81836 1.90297 
0.006375 0.00346875 1.98095 3.2546e+21 2.16431e-05 -1.63226 5.68459 -3.02913 
0.007125 0.00346875 2.05977 3.39e+21 2.25435e-05 -2.39563 6.95965 -2.69808 
0.006375 0.00365625 1.87589 3.31405e+21 2.20384e-05 1.80508 4.24299 0.454969 
0.007125 0.00365625 2.0269 3.17901e+21 2.11404e-05 -2.12027 9.95421 0.489166 
0.006375 0.00384375 2.0269 3.45051e+21 2.29459e-05 0.01099 6.21036 0.519427 
0.006375 0.00403125 1.99428 3.34793e+21 2.22637e-05 -4.87144 6.44629 -0.783933 
0.010125 0.00459375 0 0 0 0 0 0 
0.009375 0.00478125 1.95288 3.60424e+21 2.39682e-05 -1.50633 5.67674 -0.0758812 
0.010125 0.00478125 0 0 0 0 0 0 
0.010125 0.00609375 0 0 0 0 0 0 
0.010125 0.00628125 0 0 0 0 0 0 
0.010125 0.00684375 0 0 0 0 0 0 
0.010125 0.00703125 0 0 0 0 0 0 
0.010125 0.00721875 0 0 0 0 0 0 
0.010125 0.00740625 0 0 0 0 0 0 
0.010125 0.00759375 0 0 0 0 0 0 
0.010125 0.00778125 0 0 0 0 0 0 
0.016125 0.00421875 2.01017 2.4976e+21 1.66091e-05 0.0759356 -3.16484 0.195681 
0.015375 0.00440625 2.01333 2.53259e+21 1.68417e-05 1.3869 -1.46961 -3.27711 
0.016125 0.00440625 2.02375 2.66102e+21 1.76958e-05 -1.19362 -1.92604 0.769566 
0.016875 0.00421875 2.04832 2.47346e+21 1.64485e-05 1.61731 -1.80432 -0.3852 
0.017625 0.00421875 2.06305 2.4359e+21 1.61987e-05 2.21546 0.16115 -1.48579 
0.016875 0.00440625 2.08421 2.55828e+21 1.70126e-05 0.849835 0.31187 -1.12721 
0.014625 0.00478125 1.99558 2.5399e+21 1.68903e-05 -0.276338 -0.939972 -0.858049 
0.015375 0.00459375 2.00985 2.5598e+21 1.70227e-05 -1.02207 0.265126 2.03076 
0.016125 0.00478125 1.99135 2.58724e+21 1.72051e-05 0.236673 0.248712 0.749684 
0.017625 0.00459375 2.05925 2.41198e+21 1.60396e-05 2.58546 -2.16129 1.14739 
0.016875 0.00478125 1.95739 2.44995e+21 1.62921e-05 1.28184 1.66574 -0.291813 
0.012375 0.00609375 1.84724 2.47944e+21 1.64883e-05 7.64978 2.76102 -3.41303 
0.012375 0.00628125 1.92721 2.72976e+21 1.81529e-05 0.194572 0.879439 2.80875 
0.012375 0.00796875 1.91343 2.30082e+21 1.53004e-05 0.0640527 4.35209 -3.17384 
0.012375 0.00815625 1.92408 2.18548e+21 1.45335e-05 0.287073 -10.9097 -2.78554 
0.012375 0.00834375 2.08851 2.70607e+21 1.79954e-05 -0.689806 -12.5384 6.06108 
0.012375 0.00853125 1.966 2.28841e+21 1.52179e-05 6.06195 3.27577 -10.6772 
0.022875 0.00309375 2.01512 2.47297e+21 1.64453e-05 5.14131 -0.49282 0.228625 
0.023625 0.00309375 2.10363 2.32664e+21 1.54722e-05 2.0147 0.620476 -3.0814 
0.022875 0.00328125 1.89584 2.50067e+21 1.66295e-05 1.99866 -1.21584 0.931111 
0.023625 0.00328125 2.00953 2.55931e+21 1.70194e-05 0.772758 0.187184 -0.919375 
0.022875 0.00384375 2.10557 2.63233e+21 1.7505e-05 3.42673 -3.59972 2.17179 
0.023625 0.00384375 2.00361 2.34377e+21 1.55861e-05 5.77889 0.545765 -1.82801 
0.022875 0.00403125 2.01527 2.47901e+21 1.64854e-05 1.70128 -1.54423 1.51707 
0.023625 0.00403125 1.97565 2.49305e+21 1.65788e-05 1.02866 1.06572 -1.28127 
0.021375 0.00440625 1.92012 2.57626e+21 1.71321e-05 3.90025 2.42899 1.92157 
0.022125 0.00440625 1.96365 2.56855e+21 1.70809e-05 1.25565 0.433988 -1.84309 
0.018375 0.00459375 2.03103 2.44154e+21 1.62362e-05 -2.22137 -3.25288 -0.453506 
0.019125 0.00459375 2.02898 2.52284e+21 1.67769e-05 -0.497957 0.925381 -0.0296754 
0.019125 0.00478125 1.9641 2.55647e+21 1.70005e-05 5.49375 2.1277 1.50202 
0.023625 0.00459375 2.00186 2.37748e+21 1.58103e-05 2.07455 -0.335437 -2.11897 
0.023625 0.00478125 2.05993 2.44284e+21 1.62449e-05 1.50474 2.85043 1.68975 
0.022125 0.00496875 2.03795 2.36205e+21 1.57076e-05 1.88556 -0.376871 0.935763 
0.018375 0.0132188 0 0 0 0 0 0 
0.018375 0.0134063 0 0 0 0 0 0 
0.018375 0.0143437 0 0 0 0 0 0 
0.018375 0.0145312 0 0 0 0 0 0 
0.018375 0.0154687 0 0 0 0 0 0 
0.018375 0.0156563 0 0 0 0 0 0 
0.018375 0.0162188 0 0 0 0 0 0 
0.018375 0.0164062 0 0 0 0 0 0 
0.018375 0.0173437 0 0 0 0 0 0 
0.018375 0.0175312 0 0 0 0 0 0 
0.018375 0.0177187 0 0 0 0 0 0 
0.018375 0.0179062 0 0 0 0 0 0 
0.018375 0.0188437 0 0 0 0 0 0 
0.018375 0.0190312 0 0 0 0 0 0 
0.018375 0.0195938 0 0 0 0 0 0 
0.018375 0.0197812 0 0 0 0 0 0 
0.018375 0.0199687 0 0 0 0 0 0 
0.018375 0.0201562 0 0 0 0 0 0 
0.018375 0.0210937 0 0 0 0 0 0 
0.018375 0.0212812 0 0 0 0 0 0 
0.018375 0.0214687 0 0 0 0 0 0 
0.018375 0.0216562 0 0 0 0 0 0 
0.019125 0.0216562 1.9724 2.8373e+21 1.88681e-05 2.08642 3.05552 -6.48079 
0.0031875 0.00135937 2.14537 1.54345e+22 0.000102639 23.6085 -10.8196 -3.427 
0.0035625 0.00135937 2.02235 1.41536e+22 9.41215e-05 28.5057 -3.96094 -0.389456 
0.0031875 0.00145312 2.00233 1.61162e+22 0.000107173 21.8274 -7.08228 2.78117 
0.0035625 0.00145312 1.89271 1.43309e+22 9.53003e-05 17.7092 -8.48958 -1.91059 
0.0039375 0.00135937 1.87707 1.20222e+22 7.99479e-05 30.6656 -5.53044 -4.04485 
0.0043125 0.00135937 1.82808 1.08233e+22 7.19753e-05 22.724 2.04406 -0.639386 
0.0039375 0.00145312 1.95765 1.1527e+22 7.66546e-05 17.5551 2.8579 4.79252 
0.0043125 0.00145312 1.92909 1.18697e+22 7.89335e-05 16.209 -2.24127 4.78564 
0.0241875 0.00867188 2.01518 2.45359e+21 1.63164e-05 6.09838 -2.73497 -1.38747 
0.0245625 0.00867188 1.96597 2.41705e+21 1.60734e-05 -1.60739 4.11478 1.41994 
0.0241875 0.00876563 1.91648 2.59262e+21 1.72409e-05 0.507406 3.55276 2.44002 
0.0245625 0.00876563 1.96879 2.42219e+21 1.61075e-05 -2.08511 1.36754 -1.60264 
0.0264375 0.0109219 2.09459 2.55744e+21 1.7007e-05 0.78418 1.0953 1.35326 
0.0268125 0.0109219 2.169 2.44967e+21 1.62903e-05 -3.09503 -0.0484623 -1.61855 
0.0264375 0.0110156 2.03455 2.32197e+21 1.54411e-05 -1.46109 -1.74565 2.21089 
0.0268125 0.0110156 2.00257 2.46992e+21 1.6425e-05 0.234906 6.32651 -0.612821 
0.0279375 0.0107344 1.97843 2.39546e+21 1.59298e-05 1.65854 -0.201845 1.33967 
0.0283125 0.0107344 1.96845 2.48403e+21 1.65188e-05 -2.75333 -4.10625 -0.24578 
0.0279375 0.0108281 2.02382 2.36636e+21 1.57363e-05 2.66211 -0.277447 -2.2145 
0.0283125 0.0108281 2.03164 2.50433e+21 1.66538e-05 -0.60577 0.299018 -2.45067 
0.0241875 0.0114844 1.95421 2.30209e+21 1.53089e-05 -5.10351 3.31495 3.36555 
0.0245625 0.0114844 2.00576 2.3494e+21 1.56235e-05 2.22687 1.88152 -0.863696 
0.0241875 0.0115781 1.96882 2.47895e+21 1.6485e-05 5.00622 -0.498593 -4.44355 
0.0245625 0.0115781 2.02102 2.47895e+21 1.6485e-05 5.41414 -0.975233 0.447341 
0.0264375 0.0118594 2.03235 2.43925e+21 1.6221e-05 -1.19721 0.917974 -1.71039 
0.0268125 0.0118594 2.01705 2.27511e+21 1.51295e-05 0.424877 -0.601868 5.83119 
0.0264375 0.0119531 1.95506 2.34816e+21 1.56153e-05 2.3172 -2.25102 0.383776 
0.0268125 0.0119531 2.03441 2.52617e+21 1.6799e-05 -0.0687001 -2.55929 -2.20456 
0.0279375 0.0114844 1.99179 2.53467e+21 1.68555e-05 1.24756 1.66506 -0.925271 
0.0283125 0.0114844 1.99061 2.46371e+21 1.63837e-05 10.2904 -0.738284 -2.13859 
0.0279375 0.0115781 1.87807 2.51415e+21 1.67191e-05 -0.559396 3.32454 -2.82171 
0.0283125 0.0115781 1.94358 2.47113e+21 1.6433e-05 0.819587 -1.95105 1.17937 
0.0286875 0.0112969 1.95951 2.42847e+21 1.61493e-05 1.20332 -1.00676 -2.13057 
0.0290625 0.0112969 2.00995 2.48056e+21 1.64957e-05 -1.27103 2.39306 1.88885 
0.0286875 0.0113906 2.1059 2.32502e+21 1.54614e-05 -0.620489 1.44098 1.72491 
0.0290625 0.0113906 1.98212 2.37668e+21 1.58049e-05 -1.55537 2.25051 -3.12787 
0.0256875 0.0124219 1.99204 2.60213e+21 1.73042e-05 -1.20116 3.06743 -0.666135 
0.0260625 0.0124219 1.87676 2.29964e+21 1.52926e-05 -4.9991 3.15441 -3.85309 
0.0260625 0.0125156 2.01641 2.4271e+21 1.61402e-05 1.34262 1.53555 2.79123 
0.0279375 0.0122344 2.02809 2.5384e+21 1.68804e-05 1.09948 0.279591 1.2256 
0.0283125 0.0122344 2.05188 2.47179e+21 1.64374e-05 0.606282 1.65426 -2.23992 
0.0279375 0.0123281 1.99383 2.453e+21 1.63124e-05 0.792948 -0.191005 -1.8148 
0.0283125 0.0123281 1.98477 2.453e+21 1.63124e-05 -0.227177 -0.683209 1.50127 
0.0286875 0.0124219 1.96342 2.54017e+21 1.68921e-05 -0.300562 -3.02354 0.256144 
0.0290625 0.0124219 2.01016 2.42719e+21 1.61408e-05 -0.315494 -0.200791 2.32624 
0.0286875 0.0125156 1.93374 2.45965e+21 1.63567e-05 -1.64717 2.14853 -2.31047 
0.0290625 0.0125156 1.95955 2.53561e+21 1.68618e-05 1.1116 1.26869 3.91153 
0.0241875 0.0129844 1.95479 2.37086e+21 1.57662e-05 -0.69336 0.68119 4.88885 
0.0245625 0.0129844 1.96903 2.37434e+21 1.57894e-05 0.144774 1.17259 1.25974 
0.0241875 0.0130781 2.02758 2.60656e+21 1.73336e-05 0.376574 1.51303 -2.86499 
0.0245625 0.0130781 2.00505 2.48886e+21 1.65509e-05 0.572395 0.0817236 1.6842 
0.0241875 0.0131719 2.07493 2.49864e+21 1.6616e-05 3.01854 -2.31281 1.00812 
0.0245625 0.0131719 2.07182 2.64299e+21 1.75759e-05 -0.722715 -0.211978 -1.81799 
0.0241875 0.0132656 2.01681 2.30694e+21 1.53412e-05 -3.8032 -0.289249 6.0313 
0.0245625 0.0132656 1.92135 2.50829e+21 1.66801e-05 2.73653 -1.18193 -4.35788 
0.0249375 0.0131719 1.97109 2.37148e+21 1.57703e-05 2.64601 -0.730417 -1.9104 
0.0253125 0.0131719 2.01431 2.52614e+21 1.67988e-05 1.2211 3.60553 -1.49941 
0.0249375 0.0132656 2.03871 2.34789e+21 1.56135e-05 4.05919 -1.03241 1.65318 
0.0253125 0.0132656 1.90714 2.41273e+21 1.60447e-05 2.62008 -0.812055 4.37386 
0.0256875 0.0133594 1.9498 2.5754e+21 1.71264e-05 -0.4428 1.52261 1.17638 
0.0260625 0.0133594 1.9464 2.55846e+21 1.70137e-05 1.77622 5.45617 1.66049 
0.0256875 0.0134531 1.94032 2.58774e+21 1.72085e-05 1.9696 1.59534 0.346185 
0.0260625 0.0134531 1.98643 2.45987e+21 1.63581e-05 1.39556 4.53161 1.95872 
0.0294375 0.0127969 2.03159 2.5188e+21 1.675e-05 -1.82313 0.617128 0.215169 
0.0298125 0.0127969 2.09535 2.4339e+21 1.61854e-05 1.43361 1.98829 0.901664 
0.0294375 0.0128906 1.99136 2.56721e+21 1.70719e-05 0.984173 -0.672144 -0.857125 
0.0298125 0.0128906 1.96049 2.49697e+21 1.66048e-05 2.1268 0.685149 0.857982 
0.0286875 0.0129844 1.9719 2.47894e+21 1.6485e-05 2.65383 -3.93106 1.14843 
0.0290625 0.0129844 1.97091 2.42316e+21 1.6114e-05 3.32418 -0.486553 -3.1343 
0.0286875 0.0130781 2.10112 2.46117e+21 1.63668e-05 3.22643 4.83792 2.68732 
0.0290625 0.0130781 2.03845 2.46809e+21 1.64128e-05 3.00021 -0.622299 3.79229 
0.0294375 0.0129844 1.97932 2.49289e+21 1.65777e-05 2.0082 2.90637 2.5773 
0.0298125 0.0129844 2.01774 2.4894e+21 1.65545e-05 -0.330477 -1.29176 0.678987 
0.0294375 0.0130781 2.02193 2.55117e+21 1.69653e-05 3.26416 3.71185 -2.28549 
0.0298125 0.0130781 1.98788 2.47848e+21 1.64819e-05 2.09887 0.420901 4.44212 
0.0286875 0.0133594 1.88399 2.33819e+21 1.5549e-05 6.57708 -1.34995 2.72155 
0.0290625 0.0133594 1.99899 2.30092e+21 1.53011e-05 2.90233 -1.49134 3.0697 
0.0286875 0.0134531 2.06579 2.34882e+21 1.56197e-05 0.379569 -0.747018 -6.16074 
0.0290625 0.0134531 1.95973 2.38247e+21 1.58434e-05 -0.153631 -0.584669 2.07638 
0.0241875 0.0135469 1.95484 2.33257e+21 1.55116e-05 -5.71346 -0.536501 1.63889 
0.0245625 0.0135469 2.05554 2.32588e+21 1.54671e-05 -0.14737 -0.215501 -0.546518 
0.0241875 0.0136406 1.99561 2.43269e+21 1.61774e-05 3.68277 1.46121 -3.9438 
0.0245625 0.0136406 1.95664 2.57872e+21 1.71485e-05 -2.48779 2.31293 -0.0826991 
0.0256875 0.0141094 2.10029 2.58931e+21 1.72189e-05 -0.172255 1.89665 3.28053 
0.0260625 0.0141094 2.06165 2.34866e+21 1.56186e-05 -4.60082 2.52043 1.36834 
0.0256875 0.0142031 1.97986 2.41603e+21 1.60666e-05 3.75206 1.43802 2.11245 
0.0260625 0.0142031 2.03725 2.40647e+21 1.6003e-05 -0.916585 -0.135983 0.374672 
0.0271875 0.0137344 2.00353 2.46553e+21 1.63958e-05 -0.175301 -2.37663 -3.17895 
0.0275625 0.0137344 2.05481 2.3205e+21 1.54313e-05 0.326009 -1.29519 0.263224 
0.0275625 0.0138281 2.07016 2.39316e+21 1.59145e-05 -0.608896 6.80018 -2.71435 
0.0294375 0.0137344 1.99895 2.4919e+21 1.65711e-05 -0.380833 -2.85238 -2.24687 
0.0298125 0.0137344 2.0425 2.46553e+21 1.63958e-05 -1.34704 3.7412 -1.84143 
0.0294375 0.0138281 2.03014 2.38334e+21 1.58492e-05 1.59255 -3.15775 1.85926 
0.0298125 0.0138281 2.05845 2.3375e+21 1.55444e-05 0.413918 -2.21288 -1.55354 
0.0279375 0.0139219 1.94742 2.52012e+21 1.67588e-05 -0.517682 1.41986 1.57603 
0.0283125 0.0139219 2.00239 2.52988e+21 1.68237e-05 0.321564 -1.20449 0.131255 
0.0279375 0.0140156 1.96821 2.68092e+21 1.78281e-05 1.63023 -2.10012 -3.56356 
0.0283125 0.0140156 2.10088 2.41282e+21 1.60453e-05 6.06647 0.535261 -0.977616 
0.0286875 0.0139219 1.99234 2.57865e+21 1.7148e-05 -3.57595 0.22175 2.49154 
0.0290625 0.0139219 2.12086 2.42257e+21 1.61101e-05 -2.73794 1.95126 0.0286414 
0.0290625 0.0140156 2.11205 2.44189e+21 1.62386e-05 -0.894838 -0.718876 1.75234 
0.0294375 0.0141094 2.02003 2.58931e+21 1.72189e-05 -0.660185 0.39063 0.424627 
0.0298125 0.0141094 2.07822 2.55722e+21 1.70055e-05 0.827915 -0.277003 0.71329 
0.0294375 0.0142031 1.95129 2.38097e+21 1.58335e-05 0.359313 -2.44898 5.25226 
0.0298125 0.0142031 2.02696 2.4256e+21 1.61302e-05 2.95552 -3.1111 0.886212 
0.0241875 0.0142969 2.02975 2.53318e+21 1.68457e-05 1.29355 -2.32662 -0.734866 
0.0245625 0.0142969 2.13815 2.41919e+21 1.60876e-05 4.94096 2.62298 -4.29905 
0.0241875 0.0143906 2.02574 2.36253e+21 1.57108e-05 3.22248 -3.77845 0.436721 
0.0245625 0.0143906 1.9488 2.3468e+21 1.56062e-05 -0.0157693 -0.441257 2.11846 
0.0264375 0.0142969 1.98268 2.37169e+21 1.57718e-05 2.31059 1.70811 -3.09643 
0.0268125 0.0142969 1.99776 2.45085e+21 1.62982e-05 1.99345 2.45905 -1.9984 
0.0264375 0.0143906 2.01174 2.47264e+21 1.6443e-05 0.246931 0.803186 0.956299 
0.0268125 0.0143906 1.87442 2.44118e+21 1.62338e-05 3.93134 1.03445 0.271042 
0.0241875 0.0148594 2.03411 2.65665e+21 1.76667e-05 1.01951 2.50655 -1.67805 
0.0245625 0.0148594 1.99916 2.55001e+21 1.69576e-05 -1.18658 -1.37019 -3.6232 
0.0245625 0.0149531 2.07213 2.47348e+21 1.64486e-05 1.37127 -0.347655 -0.952935 
0.0256875 0.0146719 2.11615 2.47461e+21 1.64561e-05 1.47815 0.944612 3.62682 
0.0260625 0.0146719 1.95445 2.33267e+21 1.55123e-05 1.58206 4.34361 -2.69421 
0.0256875 0.0147656 2.0053 2.37305e+21 1.57808e-05 -0.0211878 -0.751525 -3.12912 
0.0264375 0.0146719 2.04287 2.56409e+21 1.70512e-05 0.48326 -1.78713 0.580833 
0.0268125 0.0146719 1.99513 2.45609e+21 1.6333e-05 -1.47929 -4.53593 -0.636954 
0.0264375 0.0147656 2.01913 2.42517e+21 1.61274e-05 -1.86292 -4.11498 -2.4658 
0.0264375 0.0148594 2.11714 2.47994e+21 1.64916e-05 -0.00296784 -0.62883 1.44606 
0.0268125 0.0148594 1.96215 2.4312e+21 1.61675e-05 -0.402696 -0.40112 1.29321 
0.0264375 0.0149531 2.13574 2.39173e+21 1.5905e-05 -3.70393 1.45416 0.496472 
0.0268125 0.0149531 1.98927 2.53705e+21 1.68714e-05 1.38263 -0.227747 0.342973 
0.0271875 0.0142969 1.96184 2.34319e+21 1.55822e-05 -3.43299 0.513935 -1.59503 
0.0275625 0.0142969 2.11906 2.40336e+21 1.59823e-05 3.57982 1.91449 -1.40619 
0.0271875 0.0143906 1.99082 2.54499e+21 1.69242e-05 2.24548 3.42834 -2.43038 
0.0275625 0.0143906 1.95322 2.4286e+21 1.61502e-05 4.1294 1.37535 -2.24357 
0.0279375 0.0144844 2.03226 2.40663e+21 1.60041e-05 -0.893881 -2.228 0.580179 
0.0283125 0.0144844 2.02499 2.49414e+21 1.6586e-05 0.424844 1.23021 -2.08273 
0.0279375 0.0145781 1.91523 2.48431e+21 1.65207e-05 -2.21511 1.68195 0.153404 
0.0283125 0.0145781 2.00038 2.51226e+21 1.67065e-05 5.90244 -0.00726243 -0.198658 
0.0271875 0.0146719 2.13781 2.6474e+21 1.76052e-05 -1.536 0.120204 0.84014 
0.0275625 0.0146719 1.94471 2.47769e+21 1.64767e-05 -1.55036 2.51059 -0.0660372 
0.0271875 0.0147656 1.9444 2.36998e+21 1.57604e-05 2.47462 -1.54927 0.459796 
0.0275625 0.0147656 2.01722 2.47423e+21 1.64536e-05 4.35034 -2.33711 -2.00146 
0.0279375 0.0146719 2.0893 2.44067e+21 1.62304e-05 -2.54009 -2.04836 -6.11057 