ITEM: TIMESTEP
500000
ITEM: NUMBER OF CELLS
41774
ITEM: BOX BOUNDS oo ao pp
0 0.12
0 0.03
-0.1 0.1
ITEM: CELLS xc yc f_out[1] f_out[2] f_out[3] f_out[4] f_out[5] f_out[6] 
0.003 0.00375 0 0 0 0 0 0 
0.003 0.00525 0 0 0 0 0 0 
0.003 0.00675 0 0 0 0 0 0 
0.003 0.00825 0 0 0 0 0 0 
0.003 0.00975 0 0 0 0 0 0 
0.003 0.01125 0 0 0 0 0 0 
0.003 0.01275 0 0 0 0 0 0 
0.003 0.01425 0 0 0 0 0 0 
0.003 0.01575 0 0 0 0 0 0 
0.003 0.01725 0 0 0 0 0 0 
0.003 0.01875 0 0 0 0 0 0 
0.003 0.02025 0 0 0 0 0 0 
0.003 0.02175 0 0 0 0 0 0 
0.003 0.02325 0 0 0 0 0 0 
0.027 0.02325 0 0 0 0 0 0 
0.003 0.02475 0 0 0 0 0 0 
0.027 0.02475 0 0 0 0 0 0 
0.003 0.02625 0 0 0 0 0 0 
0.027 0.02625 0 0 0 0 0 0 
0.003 0.02775 0 0 0 0 0 0 
0.027 0.02775 0 0 0 0 0 0 
0.003 0.02925 0 0 0 0 0 0 
0.027 0.02925 0 0 0 0 0 0 
0.009 0.01425 0 0 0 0 0 0 
0.009 0.01575 0 0 0 0 0 0 
0.009 0.01725 0 0 0 0 0 0 
0.009 0.01875 0 0 0 0 0 0 
0.009 0.02025 0 0 0 0 0 0 
0.009 0.02175 0 0 0 0 0 0 
0.009 0.02325 0 0 0 0 0 0 
0.009 0.02475 0 0 0 0 0 0 
0.009 0.02625 0 0 0 0 0 0 
0.009 0.02775 0 0 0 0 0 0 
0.009 0.02925 0 0 0 0 0 0 
0.015 0.01425 0 0 0 0 0 0 
0.015 0.01575 0 0 0 0 0 0 
0.015 0.01725 0 0 0 0 0 0 
0.015 0.01875 0 0 0 0 0 0 
0.015 0.02025 0 0 0 0 0 0 
0.015 0.02175 0 0 0 0 0 0 
0.015 0.02325 0 0 0 0 0 0 
0.015 0.02475 0 0 0 0 0 0 
0.015 0.02625 0 0 0 0 0 0 
0.015 0.02775 0 0 0 0 0 0 
0.015 0.02925 0 0 0 0 0 0 
0.021 0.02325 0 0 0 0 0 0 
0.021 0.02475 0 0 0 0 0 0 
0.021 0.02625 0 0 0 0 0 0 
0.021 0.02775 0 0 0 0 0 0 
0.021 0.02925 0 0 0 0 0 0 
0.0015 0.000375 0 0 0 0 0 0 
0.0015 0.001125 0 0 0 0 0 0 
0.0015 0.001875 0 0 0 0 0 0 
0.0015 0.002625 0 0 0 0 0 0 
0.0045 0.002625 0 0 0 0 0 0 
0.0255 0.022125 0 0 0 0 0 0 
0.0285 0.022125 0 0 0 0 0 0 
0.0105 0.000375 1.97075 5.5841e+21 3.71343e-05 5.58709 8.75327 -2.97104 
0.0075 0.013125 0 0 0 0 0 0 
0.0105 0.013125 0 0 0 0 0 0 
0.0135 0.013125 0 0 0 0 0 0 
0.0165 0.013125 0 0 0 0 0 0 
0.0195 0.022125 0 0 0 0 0 0 
0.0225 0.022125 0 0 0 0 0 0 
0.0135 0.000375 2.03754 2.45545e+21 1.63287e-05 0.18018 0.252674 0.282347 
0.00375 0.0001875 1.95491 1.29639e+22 8.62099e-05 27.4016 -4.86039 0.266813 
0.00525 0.0001875 1.82506 1.03972e+22 6.91412e-05 45.5284 0.857702 -1.11582 
0.00375 0.0020625 0 0 0 0 0 0 
0.00525 0.0020625 0 0 0 0 0 0 
0.00975 0.0016875 1.9946 4.51284e+21 3.00104e-05 -0.641439 11.7934 -0.93012 
0.01125 0.0016875 0 0 0 0 0 0 
0.01125 0.0020625 0 0 0 0 0 0 
0.01125 0.0024375 0 0 0 0 0 0 
0.01125 0.0028125 0 0 0 0 0 0 
0.01125 0.0031875 0 0 0 0 0 0 
0.01125 0.0035625 0 0 0 0 0 0 
0.01125 0.0039375 0 0 0 0 0 0 
0.01125 0.0043125 0 0 0 0 0 0 
0.01125 0.0046875 0 0 0 0 0 0 
0.01125 0.0050625 0 0 0 0 0 0 
0.01125 0.0054375 0 0 0 0 0 0 
0.01125 0.0058125 0 0 0 0 0 0 
0.01125 0.0061875 0 0 0 0 0 0 
0.01125 0.0065625 0 0 0 0 0 0 
0.01125 0.0069375 0 0 0 0 0 0 
0.01125 0.0073125 0 0 0 0 0 0 
0.01125 0.0076875 0 0 0 0 0 0 
0.01125 0.0080625 0 0 0 0 0 0 
0.01125 0.0084375 0 0 0 0 0 0 
0.01125 0.0088125 0 0 0 0 0 0 
0.01125 0.0091875 0 0 0 0 0 0 
0.00675 0.0001875 1.68032 6.71516e+21 4.46558e-05 59.21 5.74369 -1.93958 
0.00825 0.0001875 1.83834 5.16086e+21 3.43197e-05 31.2443 5.66655 3.5115 
0.00825 0.0005625 1.99431 4.99487e+21 3.32159e-05 27.5743 8.12909 0.372243 
0.01275 0.0016875 2.08466 2.5119e+21 1.67041e-05 0.597308 -1.83658 0.923949 
0.01275 0.0020625 2.05109 2.48989e+21 1.65578e-05 -1.11389 -0.938919 3.14699 
0.003375 0.00046875 1.96597 1.53126e+22 0.000101829 26.4063 -6.53436 -3.46983 
0.004125 0.00046875 1.87032 1.23619e+22 8.22068e-05 38.2078 -3.62026 1.24131 
0.003375 0.00065625 1.87608 1.33883e+22 8.90325e-05 28.6556 -5.46171 0.000427039 
0.004125 0.00065625 1.82423 1.28483e+22 8.5441e-05 31.4349 0.180286 -1.67253 
0.004875 0.00046875 1.9059 1.01889e+22 6.77564e-05 39.467 3.5426 2.34519 
0.005625 0.00046875 1.83184 9.65776e+21 6.42241e-05 48.8398 -4.56524 -4.41184 
0.004875 0.00065625 1.93993 1.11409e+22 7.40871e-05 42.5872 5.43494 -1.63264 
0.005625 0.00065625 1.8142 8.8472e+21 5.88339e-05 48.0448 -1.97388 -5.324 
0.003375 0.00084375 1.98195 1.35547e+22 9.01391e-05 26.3857 -4.8492 1.54544 
0.003375 0.00103125 1.9428 1.42383e+22 9.46844e-05 28.0145 -2.38583 2.29088 
0.004875 0.00084375 1.8062 1.03687e+22 6.89517e-05 40.3964 -2.92272 -3.36015 
0.005625 0.00084375 1.78931 9.17487e+21 6.10129e-05 43.4948 -1.27367 0.949784 
0.004875 0.00103125 1.83104 1.03931e+22 6.91139e-05 36.8784 -2.17618 4.16015 
0.005625 0.00103125 1.76538 8.91148e+21 5.92613e-05 41.3771 1.95452 -2.89135 
0.027375 0.00346875 1.95112 2.60694e+21 1.73362e-05 -0.376336 -0.161324 -3.30006 
0.028125 0.00346875 1.93568 2.77008e+21 1.8421e-05 -0.76262 3.46915 2.39085 
0.027375 0.00365625 2.021 2.55064e+21 1.69617e-05 5.11081 -4.55178 0.316959 
0.028125 0.00365625 1.96804 2.52897e+21 1.68177e-05 1.7375 -5.20755 0.410322 
0.025875 0.00421875 2 2.47882e+21 1.64842e-05 0.67036 -0.0693122 -1.84593 
0.027375 0.00384375 1.89346 2.47922e+21 1.64868e-05 7.25977 -5.08871 2.43446 
0.025875 0.00496875 1.97587 2.56477e+21 1.70557e-05 3.388 1.44239 -0.82619 
0.026625 0.00496875 2.0251 2.57844e+21 1.71466e-05 0.516013 -1.7385 -3.24201 
0.027375 0.00553125 1.99969 2.51265e+21 1.67091e-05 1.51549 -3.68747 -0.719254 
0.025125 0.0216562 1.95146 2.51423e+21 1.67196e-05 -4.23737 -0.506759 -1.81194 
0.025875 0.0216562 1.89143 2.38548e+21 1.58635e-05 0.584757 4.36005 1.65786 
0.026625 0.0216562 1.98995 2.71094e+21 1.80277e-05 2.89276 1.53667 -1.37474 
0.027375 0.0216562 1.99109 2.53212e+21 1.68386e-05 -0.492202 1.66903 -5.36883 
0.028125 0.0216562 2.10937 2.62153e+21 1.74331e-05 0.355279 -0.374776 -3.46632 
0.028875 0.0216562 2.00964 2.49993e+21 1.66245e-05 -2.03427 -1.34521 4.57743 
0.029625 0.0216562 1.97167 2.44628e+21 1.62678e-05 -1.74685 -1.6196 -2.3117 
0.006375 0.00084375 1.67694 6.88115e+21 4.57597e-05 55.3935 5.73893 0.226938 
0.007125 0.00084375 1.854 5.66052e+21 3.76425e-05 55.9122 12.8406 1.64463 
0.006375 0.00103125 1.7174 6.68361e+21 4.4446e-05 50.3668 3.69844 -2.67517 
0.007125 0.00103125 1.76055 5.28982e+21 3.51773e-05 44.8778 10.5856 -2.45261 
0.006375 0.00121875 1.73807 6.14753e+21 4.08811e-05 48.4434 12.2122 4.2552 
0.007125 0.00121875 1.86595 4.90317e+21 3.26061e-05 47.0585 18.7512 1.42344 
0.006375 0.00140625 1.86482 6.43046e+21 4.27625e-05 37.0524 7.60184 -0.210931 
0.007125 0.00140625 1.80264 4.61158e+21 3.0667e-05 39.6426 21.7123 -0.536162 
0.006375 0.00159375 1.86286 5.08126e+21 3.37904e-05 21.6363 12.5341 -0.834421 
0.007125 0.00159375 1.87281 4.29628e+21 2.85703e-05 30.2823 21.0445 3.32387 
0.006375 0.00178125 1.95756 3.00216e+21 1.99644e-05 16.9408 11.4053 8.51479 
0.007125 0.00178125 1.9291 3.6979e+21 2.45911e-05 20.7797 22.2939 -3.67002 
0.007875 0.00196875 1.90692 3.98383e+21 2.64924e-05 15.7593 23.1429 3.17899 
0.008625 0.00196875 1.92306 4.06431e+21 2.70276e-05 9.49556 16.5115 -0.548079 
0.007875 0.00215625 1.95521 3.82111e+21 2.54104e-05 7.71588 18.5757 -1.44003 
0.007875 0.00234375 1.87488 3.98383e+21 2.64924e-05 5.23421 18.5412 -1.86816 
0.008625 0.00234375 2.10533 4.25907e+21 2.83228e-05 2.13953 20.1537 0.769055 
0.007875 0.00253125 1.98344 3.92123e+21 2.60762e-05 3.9597 17.1088 -1.33795 
0.008625 0.00253125 1.9503 3.97488e+21 2.6433e-05 2.88101 16.4663 -0.78835 
0.008625 0.00271875 1.96105 3.75487e+21 2.49699e-05 1.42319 16.7017 0.249256 
0.007875 0.00290625 1.93816 3.61387e+21 2.40322e-05 -1.42375 15.1866 -1.51807 
0.008625 0.00290625 1.89757 3.80858e+21 2.53271e-05 0.509752 15.8641 -1.89124 
0.007875 0.00309375 1.96684 3.59605e+21 2.39137e-05 0.456765 15.9284 0.879061 
0.008625 0.00309375 2.00703 3.68019e+21 2.44733e-05 -2.07577 15.8798 1.19435 
0.006375 0.00346875 1.94201 3.54213e+21 2.35552e-05 -2.01277 2.80105 -3.73357 
0.006375 0.00365625 1.86471 3.31405e+21 2.20384e-05 1.21734 9.14394 2.53105 
0.007125 0.00365625 1.89267 3.40498e+21 2.26431e-05 -0.925181 6.13816 1.51411 
0.007875 0.00346875 2.0109 3.65429e+21 2.4301e-05 -2.03833 12.6146 -0.350177 
0.008625 0.00365625 2.0275 3.42974e+21 2.28078e-05 -3.01838 10.8505 0.13923 
0.006375 0.00384375 2.07061 3.2076e+21 2.13305e-05 -3.19447 5.27284 0.541291 
0.006375 0.00403125 2.05673 3.49006e+21 2.32089e-05 -3.4573 4.4379 -4.00745 
0.008625 0.00384375 2.05386 3.45383e+21 2.29679e-05 -0.00584517 14.8906 -1.0876 
0.008625 0.00403125 1.97905 3.44759e+21 2.29265e-05 -2.77527 7.89354 -1.25884 
0.006375 0.00421875 1.9908 3.42046e+21 2.2746e-05 0.413938 4.8523 0.712765 
0.006375 0.00440625 1.94603 3.22674e+21 2.14578e-05 0.985282 6.91918 3.19649 
0.006375 0.00459375 2.01777 3.39531e+21 2.25788e-05 0.991419 5.47812 -0.871913 
0.006375 0.00478125 1.90012 3.25772e+21 2.16638e-05 -0.0619187 2.56981 0.423532 
0.006375 0.00496875 2.03807 3.27572e+21 2.17836e-05 0.0612901 2.98173 -1.13172 
0.006375 0.00515625 1.91501 3.35827e+21 2.23325e-05 0.97544 2.78563 0.160883 
0.006375 0.00534375 1.98814 3.19675e+21 2.12584e-05 -6.25951 4.49146 1.6392 
0.006375 0.00553125 1.92577 3.13059e+21 2.08184e-05 0.268882 5.76039 -0.61002 
0.006375 0.00571875 1.95071 3.19122e+21 2.12216e-05 -1.19114 5.88531 -0.938651 
0.010125 0.00534375 0 0 0 0 0 0 
0.010125 0.00553125 0 0 0 0 0 0 
0.006375 0.00609375 2.07078 3.23163e+21 2.14904e-05 -0.185271 5.11403 0.15889 
0.006375 0.00628125 1.94742 3.10138e+21 2.06242e-05 0.456727 5.1734 -1.30594 
0.006375 0.00646875 1.97054 3.28377e+21 2.18371e-05 -0.103202 5.03883 -2.34782 
0.006375 0.00665625 2.0966 2.86927e+21 1.90807e-05 -4.77124 3.71628 0.731299 
0.006375 0.00703125 2.00203 3.27458e+21 2.1776e-05 2.87512 5.4495 1.16679 
0.006375 0.00740625 2.01314 3.15749e+21 2.09973e-05 -1.4342 2.47212 -2.84431 
0.010125 0.00684375 0 0 0 0 0 0 
0.010125 0.00703125 0 0 0 0 0 0 
0.010125 0.00721875 0 0 0 0 0 0 
0.010125 0.00740625 0 0 0 0 0 0 
0.010125 0.00759375 0 0 0 0 0 0 
0.010125 0.00778125 0 0 0 0 0 0 
0.006375 0.00853125 1.91278 2.99483e+21 1.99156e-05 -0.815267 2.10729 -0.739333 
0.010125 0.00834375 0 0 0 0 0 0 
0.010125 0.00853125 0 0 0 0 0 0 
0.010125 0.00909375 0 0 0 0 0 0 
0.010125 0.00928125 0 0 0 0 0 0 
0.010125 0.00946875 2.09797 2.59912e+21 1.72841e-05 -3.31724 -1.4881 -1.61475 
0.010875 0.00946875 1.92744 2.80431e+21 1.86487e-05 1.56822 2.26773 -3.37448 
0.011625 0.00946875 2.02422 2.87271e+21 1.91035e-05 -3.01251 -2.21699 0.516909 
0.017625 0.00421875 2.02769 2.50833e+21 1.66804e-05 -0.216066 2.16499 -1.14543 
0.016875 0.00440625 2.04122 2.73037e+21 1.8157e-05 4.4427 -1.90772 1.76715 
0.015375 0.00496875 1.92107 2.65588e+21 1.76616e-05 0.0177494 -3.25056 0.312616 
0.016875 0.00496875 1.94946 2.62399e+21 1.74496e-05 3.2308 -1.20639 0.560521 
0.016875 0.00515625 1.97471 2.57028e+21 1.70924e-05 -0.0671198 -1.55479 -0.889796 
0.012375 0.00796875 1.6505 2.70559e+21 1.79922e-05 -1.91898 0.61054 -4.83677 
0.012375 0.00815625 2.2296 2.70584e+21 1.79938e-05 -2.37613 -1.76663 13.6533 
0.012375 0.00871875 2.27948 2.31708e+21 1.54086e-05 10.9592 -4.57229 -1.69105 
0.012375 0.00890625 1.69774 2.47798e+21 1.64785e-05 -14.143 2.7735 1.23709 
0.012375 0.00909375 2.01264 2.80025e+21 1.86217e-05 3.41074 -6.52206 -3.34789 
0.012375 0.00928125 2.18807 2.34127e+21 1.55695e-05 1.78801 -3.74606 -18.6914 
0.012375 0.00946875 2.019 2.86113e+21 1.90265e-05 7.92937 -0.312493 4.07345 
0.019875 0.00421875 2.09294 2.6371e+21 1.75367e-05 1.17174 0.338716 0.268883 
0.020625 0.00421875 2.01322 2.43858e+21 1.62166e-05 1.82421 2.41407 -0.266418 
0.019875 0.00440625 2.00859 2.57112e+21 1.7098e-05 2.20497 -0.832779 -1.45779 
0.019125 0.00515625 2.06942 2.52419e+21 1.67858e-05 0.798153 -4.40278 0.64718 
0.020625 0.00496875 1.99658 2.51922e+21 1.67528e-05 0.190329 2.19194 -1.16534 
0.019875 0.00571875 1.93828 2.51537e+21 1.67272e-05 3.85297 -1.00148 1.19275 
0.018375 0.0132188 0 0 0 0 0 0 
0.018375 0.0134063 0 0 0 0 0 0 
0.018375 0.0139688 0 0 0 0 0 0 
0.018375 0.0141563 0 0 0 0 0 0 
0.018375 0.0143437 0 0 0 0 0 0 
0.018375 0.0145312 0 0 0 0 0 0 
0.018375 0.0158438 0 0 0 0 0 0 
0.018375 0.0160313 0 0 0 0 0 0 
0.018375 0.0162188 0 0 0 0 0 0 
0.018375 0.0164062 0 0 0 0 0 0 
0.018375 0.0177187 0 0 0 0 0 0 
0.018375 0.0179062 0 0 0 0 0 0 
0.018375 0.0184687 0 0 0 0 0 0 
0.018375 0.0186562 0 0 0 0 0 0 
0.018375 0.0195938 0 0 0 0 0 0 
0.018375 0.0197812 0 0 0 0 0 0 
0.018375 0.0199687 0 0 0 0 0 0 
0.018375 0.0201562 0 0 0 0 0 0 
0.018375 0.0207187 0 0 0 0 0 0 
0.018375 0.0209062 0 0 0 0 0 0 
0.019875 0.0216562 1.95436 2.45343e+21 1.63153e-05 -0.2354 1.92064 -5.44717 
0.020625 0.0216562 2.04237 2.73955e+21 1.8218e-05 0.896802 0.229256 -0.804778 
0.021375 0.0216562 1.98951 2.49635e+21 1.66007e-05 -1.42167 -0.397472 -0.264324 
0.022125 0.0216562 1.99484 2.43555e+21 1.61964e-05 -5.50584 3.75578 -1.63415 
0.022875 0.0216562 2.04504 2.64656e+21 1.75996e-05 1.09211 0.831068 -3.19845 
0.023625 0.0216562 2.06634 2.60007e+21 1.72904e-05 -3.98422 -1.73732 -1.50836 
0.01875 0.0009375 1.94357 2.53818e+21 1.68789e-05 2.60439 1.13215 0.110898 
0.02025 0.0009375 2.0807 2.68908e+21 1.78824e-05 0.563115 -1.14311 -2.78604 
0.02175 0.0009375 2.17662 2.58647e+21 1.72e-05 5.36073 0.991998 -2.03835 
0.02325 0.0009375 1.98066 2.68908e+21 1.78824e-05 6.36394 -4.14638 -0.639546 
0.02475 0.0009375 2.0648 2.60458e+21 1.73204e-05 4.05933 0.208637 -1.40555 
0.02925 0.0009375 2.02714 2.6257e+21 1.74609e-05 0.497286 0.788089 4.49807 
0.025875 0.00271875 1.92971 2.47272e+21 1.64436e-05 -1.0426 -1.1415 -0.15308 
0.026625 0.00271875 2.02137 2.42277e+21 1.61114e-05 2.38586 1.92798 2.87285 
0.025875 0.00290625 1.92717 2.59358e+21 1.72473e-05 2.69071 1.48347 -2.36343 
0.026625 0.00290625 2.03991 2.53906e+21 1.68847e-05 -0.675273 4.71437 -0.489402 
0.028125 0.00421875 2.01046 2.54053e+21 1.68945e-05 4.02636 -0.632475 -3.11364 
0.027375 0.00440625 2.01904 2.48893e+21 1.65514e-05 5.2789 -2.37669 -0.338297 
0.028125 0.00440625 1.98052 2.65075e+21 1.76275e-05 5.37384 2.24322 0.419372 
0.028875 0.00421875 1.95903 2.6532e+21 1.76438e-05 0.900043 -2.3262 -1.21177 
0.028875 0.00440625 2.00588 2.4504e+21 1.62952e-05 2.17472 -0.274858 1.29034 
0.029625 0.00440625 1.90657 2.56855e+21 1.70809e-05 -0.29562 -1.63027 -0.522904 
0.025875 0.00459375 2.1579 2.46864e+21 1.64165e-05 2.70719 2.32556 -2.3434 
0.026625 0.00459375 1.98728 2.70516e+21 1.79893e-05 0.196567 3.35514 -0.652131 
0.027375 0.00459375 2.07456 2.47357e+21 1.64492e-05 3.7649 2.51138 -0.815163 
0.027375 0.00478125 2.08561 2.45231e+21 1.63079e-05 2.93305 -2.95607 0.368766 
0.028875 0.00459375 2.03607 2.54994e+21 1.69571e-05 2.41006 0.639187 1.03234 
0.007875 0.00159375 2.00699 4.09034e+21 2.72008e-05 24.2858 18.1368 -1.96697 
0.008625 0.00159375 1.96217 4.64425e+21 3.08842e-05 9.19605 21.9331 0.0544691 
0.007875 0.00178125 2.00611 3.9457e+21 2.62389e-05 19.3777 27.1333 -0.876604 
0.008625 0.00178125 2.00628 4.06007e+21 2.69995e-05 6.45273 22.6013 0.0583963 
0.006375 0.00234375 1.94353 3.38625e+21 2.25186e-05 5.52851 4.62175 3.21454 
0.007125 0.00234375 1.99473 3.44782e+21 2.2928e-05 2.72507 15.0765 -1.69199 
0.006375 0.00253125 1.97131 3.25279e+21 2.1631e-05 3.14479 -2.67818 0.594517 
0.007125 0.00253125 1.91188 3.44728e+21 2.29244e-05 -0.187543 13.072 0.934239 
0.006375 0.00309375 1.96559 3.36101e+21 2.23507e-05 0.96475 4.85239 2.26973 
0.006375 0.00328125 1.94533 3.52465e+21 2.34389e-05 0.627411 4.916 -2.86493 
0.010125 0.00609375 0 0 0 0 0 0 
0.010125 0.00628125 0 0 0 0 0 0 
0.010125 0.00796875 0 0 0 0 0 0 
0.010125 0.00815625 0 0 0 0 0 0 
0.010125 0.00871875 0 0 0 0 0 0 
0.010125 0.00890625 0 0 0 0 0 0 
0.016875 0.00234375 1.99618 2.58345e+21 1.71799e-05 3.1545 -3.01405 4.90979 
0.017625 0.00234375 1.93911 2.68486e+21 1.78543e-05 0.618424 1.93911 -0.13144 
0.016875 0.00253125 1.9438 2.42785e+21 1.61452e-05 3.50396 -4.35555 1.41526 
0.017625 0.00253125 1.9905 2.53963e+21 1.68886e-05 -1.75562 -3.53088 -2.47401 
0.013875 0.00346875 2.03111 2.46338e+21 1.63815e-05 2.35381 1.09586 0.387066 
0.014625 0.00346875 2.02355 2.54169e+21 1.69022e-05 -3.4797 -0.847235 1.24464 
0.013875 0.00365625 1.96414 2.68993e+21 1.78881e-05 1.70353 3.03854 3.47229 
0.014625 0.00365625 1.92912 2.65898e+21 1.76822e-05 -2.50154 -2.39791 -0.301041 
0.016875 0.00309375 1.96582 2.5315e+21 1.68345e-05 0.783136 -0.203594 -0.307048 
0.017625 0.00309375 2.12694 2.50224e+21 1.66399e-05 2.73293 -5.48527 -3.45658 
0.016875 0.00328125 1.97891 2.61104e+21 1.73634e-05 -0.549721 -2.46929 -0.425978 
0.017625 0.00328125 1.9448 2.39374e+21 1.59184e-05 0.0319882 0.384603 -2.2358 
0.014625 0.00421875 1.9794 2.54321e+21 1.69123e-05 -3.01853 0.287102 -0.99732 
0.013875 0.00440625 2.01327 2.69441e+21 1.79178e-05 -1.4693 -1.47737 -2.74547 
0.014625 0.00440625 1.95903 2.62506e+21 1.74567e-05 4.16193 -1.06694 2.12159 
0.015375 0.00384375 1.97327 2.49099e+21 1.65651e-05 2.3798 -2.53452 -4.46066 
0.016125 0.00384375 2.02566 2.69122e+21 1.78966e-05 -1.2808 0.33595 2.03554 
0.015375 0.00403125 2.0488 2.51832e+21 1.67468e-05 4.36606 -3.10832 2.69305 
0.016125 0.00403125 1.93088 2.49024e+21 1.65601e-05 0.970954 -3.98113 -0.0964041 
0.016875 0.00384375 2.02974 2.60877e+21 1.73483e-05 1.52554 1.55916 0.139634 
0.017625 0.00384375 2.03259 2.61761e+21 1.74071e-05 0.681994 -5.98469 3.54114 
0.015375 0.00421875 1.95246 2.48687e+21 1.65377e-05 3.95801 -2.32357 1.94005 
0.016125 0.00421875 2.01822 2.60223e+21 1.73048e-05 0.592369 0.00713416 2.53538 
0.015375 0.00440625 2.0159 2.61222e+21 1.73712e-05 -1.17225 -1.81331 -0.998522 
0.013875 0.00515625 2.09716 2.43858e+21 1.62166e-05 3.43499 -0.68584 2.10044 
0.015375 0.00459375 1.92556 2.60661e+21 1.7334e-05 1.60536 2.4298 -1.6809 
0.015375 0.00478125 2.01924 2.68429e+21 1.78505e-05 1.32549 -1.64094 -1.33352 
0.016875 0.00459375 1.98158 2.64356e+21 1.75797e-05 -0.951185 -2.23949 4.11141 
0.013875 0.00553125 1.94181 2.4615e+21 1.6369e-05 0.902051 1.2636 -0.47199 
0.012375 0.00721875 1.89106 2.37524e+21 1.57954e-05 0.626505 -4.73056 0.21939 
0.012375 0.00740625 2.14153 3.07153e+21 2.04257e-05 -1.29719 -3.26712 2.17531 
0.012375 0.00834375 1.76997 2.74676e+21 1.8266e-05 2.24984 -2.1479 5.97027 
0.012375 0.00853125 2.03709 2.5869e+21 1.72029e-05 0.434001 -6.72298 6.79306 
0.019875 0.00271875 2.02311 2.46856e+21 1.64159e-05 1.43746 -2.45752 1.3753 
0.020625 0.00271875 1.9809 2.40195e+21 1.5973e-05 3.97007 3.24992 -0.979002 
0.019875 0.00290625 1.98922 2.63252e+21 1.75062e-05 -2.82603 -0.803751 -1.03672 
0.020625 0.00290625 1.92355 2.578e+21 1.71437e-05 1.56279 -3.27312 3.70169 
0.019875 0.00309375 2.11181 2.59735e+21 1.72724e-05 4.5018 -2.23842 -1.28152 
0.020625 0.00309375 1.86809 2.45468e+21 1.63236e-05 6.30463 -0.423562 3.24269 
0.019875 0.00328125 2.04272 2.52481e+21 1.679e-05 5.42538 3.24525 0.00238854 
0.020625 0.00328125 1.99986 2.62829e+21 1.74781e-05 4.67249 2.43779 5.35682 
0.018375 0.00384375 2.03992 2.73244e+21 1.81707e-05 5.35072 -3.61477 0.983825 
0.019125 0.00384375 1.99059 2.54105e+21 1.6898e-05 0.137165 -0.284006 0.602569 
0.018375 0.00403125 2.06632 2.49586e+21 1.65974e-05 5.32025 1.62883 0.771109 
0.019125 0.00403125 1.98 2.52112e+21 1.67655e-05 1.09287 1.56443 -0.125985 
0.021375 0.00421875 2.03341 2.6532e+21 1.76438e-05 1.31658 -0.863887 3.91378 
0.022125 0.00440625 1.92672 2.56855e+21 1.70809e-05 4.75103 -0.879121 -2.88942 
0.022875 0.00421875 1.93185 2.69881e+21 1.79471e-05 2.6121 1.48644 1.53034 
0.022875 0.00440625 1.93128 2.4504e+21 1.62952e-05 -1.17602 1.35308 -3.0344 
0.021375 0.00459375 2.0141 2.57704e+21 1.71373e-05 2.09163 -1.35823 -0.388644 
0.022125 0.00459375 1.98925 2.63864e+21 1.75469e-05 1.015 -3.76039 -2.89468 
0.022125 0.00478125 1.94854 2.47125e+21 1.64338e-05 3.83033 -0.244868 -2.78629 
0.022875 0.00459375 2.01156 2.45632e+21 1.63345e-05 1.92317 0.0303188 0.365555 
0.023625 0.00459375 1.96942 2.50067e+21 1.66295e-05 -1.44709 -3.37237 0.0599555 
0.018375 0.0135938 0 0 0 0 0 0 
0.018375 0.0137813 0 0 0 0 0 0 
0.018375 0.0154687 0 0 0 0 0 0 
0.018375 0.0156563 0 0 0 0 0 0 
0.018375 0.0165937 0 0 0 0 0 0 
0.018375 0.0167812 0 0 0 0 0 0 
0.018375 0.0169687 0 0 0 0 0 0 
0.018375 0.0171562 0 0 0 0 0 0 
0.018375 0.0173437 0 0 0 0 0 0 
0.018375 0.0175312 0 0 0 0 0 0 
0.018375 0.0180937 0 0 0 0 0 0 
0.018375 0.0182812 0 0 0 0 0 0 
0.018375 0.0188437 0 0 0 0 0 0 
0.018375 0.0190312 0 0 0 0 0 0 
0.018375 0.0192187 0 0 0 0 0 0 
0.018375 0.0194062 0 0 0 0 0 0 
0.018375 0.0203437 0 0 0 0 0 0 
0.018375 0.0205312 0 0 0 0 0 0 
0.018375 0.0210937 0 0 0 0 0 0 
0.018375 0.0212812 0 0 0 0 0 0 
0.027375 0.00271875 2.01436 2.51851e+21 1.67481e-05 -2.26081 1.04513 -2.93277 
0.028125 0.00271875 2.00727 2.62258e+21 1.74402e-05 6.40463 -2.89097 -3.00747 
0.027375 0.00290625 2.00717 2.45728e+21 1.63409e-05 2.65169 3.88204 1.7195 
0.028125 0.00290625 2.03449 2.49622e+21 1.65999e-05 -0.326702 -1.54394 1.08759 
0.0039375 0.00135937 1.90625 1.24219e+22 8.26055e-05 27.5299 3.96487 -6.14092 
0.0043125 0.00135937 1.70583 1.20888e+22 8.03908e-05 21.7765 2.85929 8.48751 
0.0039375 0.00145312 1.85953 1.08416e+22 7.20967e-05 20.2595 -2.4157 -0.316364 
0.0043125 0.00145312 2.00539 1.07793e+22 7.16824e-05 16.0894 -0.884457 1.73404 
0.0264375 0.0107344 2.15805 2.57259e+21 1.71077e-05 -2.75528 -0.150688 1.76635 
0.0268125 0.0107344 1.98961 2.5009e+21 1.6631e-05 0.569995 -0.786578 -7.24367 
0.0264375 0.0108281 2.15911 2.43743e+21 1.62089e-05 -1.08407 -0.754019 -0.0528334 
0.0268125 0.0108281 1.95354 2.62557e+21 1.74601e-05 1.15339 -2.64685 5.1827 
0.0279375 0.0109219 2.0207 2.58231e+21 1.71724e-05 7.18593 -2.46237 5.03566 
0.0283125 0.0109219 1.98211 2.64448e+21 1.75858e-05 0.460601 -3.19127 -0.339758 
0.0279375 0.0110156 1.97718 2.58499e+21 1.71902e-05 -1.63026 1.63227 2.44685 
0.0283125 0.0110156 1.88141 2.35485e+21 1.56597e-05 -3.82209 2.15399 4.35262 
0.0279375 0.0111094 2.06809 2.77508e+21 1.84543e-05 2.98151 0.597745 -1.90337 
0.0283125 0.0111094 1.965 2.57133e+21 1.70993e-05 -1.18924 -4.49966 -1.81515 
0.0279375 0.0112031 1.92992 2.55385e+21 1.69831e-05 -0.631961 2.03432 0.771698 
0.0283125 0.0112031 1.9378 2.53769e+21 1.68756e-05 0.203315 0.356378 2.55621 
0.0256875 0.0116719 2.06347 2.61419e+21 1.73844e-05 -1.21939 -0.456221 0.295942 
0.0260625 0.0116719 2.09368 2.68012e+21 1.78228e-05 1.34669 -3.14851 -1.99011 
0.0256875 0.0117656 2.07977 2.41252e+21 1.60432e-05 3.06212 -4.26685 0.363356 
0.0260625 0.0117656 2.05201 2.39712e+21 1.59409e-05 0.364734 4.76779 1.29662 
0.0264375 0.0116719 2.04576 2.40862e+21 1.60173e-05 2.90613 2.29396 1.28322 
0.0268125 0.0116719 2.09152 2.6491e+21 1.76165e-05 1.08475 0.100748 0.0679692 
0.0264375 0.0117656 1.94147 2.73572e+21 1.81926e-05 0.934335 -2.21873 0.183861 
0.0268125 0.0117656 2.05595 2.65877e+21 1.76808e-05 -0.373672 -1.21047 -2.68174 
0.0264375 0.0120469 2.03013 2.51402e+21 1.67183e-05 1.98577 -1.47819 1.65825 
0.0268125 0.0120469 1.98821 2.49148e+21 1.65683e-05 -0.980473 4.41273 -1.21253 
0.0264375 0.0121406 2.07995 2.68105e+21 1.7829e-05 2.07123 3.01169 0.0047964 
0.0268125 0.0121406 1.87438 2.56546e+21 1.70603e-05 -1.01232 2.48433 -2.56172 
0.0256875 0.0122344 1.95171 2.5051e+21 1.66589e-05 2.41628 3.53013 1.90995 
0.0260625 0.0122344 1.98053 2.5754e+21 1.71264e-05 1.68581 -1.42274 1.44745 
0.0256875 0.0123281 2.01215 2.62192e+21 1.74357e-05 3.46567 2.47183 -0.500803 
0.0260625 0.0123281 1.97253 2.53378e+21 1.68497e-05 2.81868 2.77067 1.42655 
0.0271875 0.0122344 1.85417 2.44959e+21 1.62898e-05 0.300647 3.40185 -4.54063 
0.0275625 0.0122344 2.08205 2.5569e+21 1.70034e-05 2.28728 0.0935129 -4.34777 
0.0271875 0.0123281 2.00506 2.73575e+21 1.81928e-05 3.81808 4.09318 2.68862 
0.0275625 0.0123281 2.08267 2.6366e+21 1.75334e-05 4.50724 -1.89999 4.96454 
0.0286875 0.0122344 2.02316 2.605e+21 1.73233e-05 -0.196981 -0.461799 1.95514 
0.0290625 0.0122344 1.99107 2.64941e+21 1.76186e-05 -0.753787 -2.94967 4.93216 
0.0286875 0.0123281 2.01674 2.54113e+21 1.68985e-05 -1.02866 -0.457652 0.258015 
0.0290625 0.0123281 1.98689 2.65129e+21 1.76311e-05 0.903509 -1.73111 -0.100783 
0.0264375 0.0133594 2.08914 2.67367e+21 1.77799e-05 4.80678 -2.88931 1.95709 
0.0268125 0.0133594 1.96445 2.4873e+21 1.65405e-05 1.07424 1.36794 -0.444566 
0.0264375 0.0134531 2.07939 2.49352e+21 1.65819e-05 3.87276 0.492875 2.53285 
0.0268125 0.0134531 2.00046 2.58438e+21 1.71861e-05 -2.85263 -1.16752 -0.202845 
0.0241875 0.0141094 2.06393 2.60856e+21 1.73469e-05 -2.25548 4.15701 -1.89312 
0.0245625 0.0141094 2.04102 2.52193e+21 1.67708e-05 1.48851 0.768349 3.8211 
0.0241875 0.0142031 2.0406 2.47341e+21 1.64481e-05 -0.582444 0.340297 0.72009 
0.0245625 0.0142031 2.01479 2.71246e+21 1.80379e-05 3.45365 -0.731837 -2.99108 
0.0249375 0.0141094 2.11231 2.57326e+21 1.71122e-05 1.09122 1.74726 4.11011 
0.0253125 0.0141094 2.02711 2.50267e+21 1.66428e-05 6.4072 1.97111 3.89893 
0.0249375 0.0142031 1.84498 2.64552e+21 1.75927e-05 2.54003 -1.12421 -4.16365 
0.0253125 0.0142031 2.01791 2.56584e+21 1.70628e-05 0.35632 0.350682 3.55745 
0.0264375 0.0139219 2.06562 2.52012e+21 1.67588e-05 -1.78523 1.79373 2.21578 
0.0268125 0.0139219 1.97811 2.63068e+21 1.7494e-05 -0.155124 2.20943 -0.183941 
0.0264375 0.0140156 2.01271 2.53234e+21 1.684e-05 0.0949269 0.051032 -3.72955 
0.0268125 0.0140156 2.07803 2.68092e+21 1.78281e-05 1.57846 1.50893 -3.57082 
0.0271875 0.0135469 2.01558 2.67677e+21 1.78005e-05 -0.569502 -1.44026 1.85476 
0.0275625 0.0135469 2.02235 2.73692e+21 1.82005e-05 1.11022 -0.98804 3.44763 
0.0271875 0.0136406 1.9747 2.49243e+21 1.65747e-05 -1.60089 1.04684 -2.45221 
0.0275625 0.0136406 1.96913 2.63514e+21 1.75237e-05 0.351981 -3.40879 -1.62364 
0.0283125 0.0137344 1.97624 2.50508e+21 1.66588e-05 -1.12615 -0.0695443 -0.239929 
0.0279375 0.0138281 2.03236 2.53393e+21 1.68507e-05 3.56275 2.75634 2.66344 
0.0283125 0.0138281 2.01024 2.50447e+21 1.66547e-05 -1.39266 4.72312 -0.632203 
0.0294375 0.0135469 1.97557 2.46624e+21 1.64005e-05 0.815499 -1.65533 2.66559 
0.0298125 0.0135469 2.06867 2.69014e+21 1.78894e-05 2.97277 0.946391 1.0481 
0.0294375 0.0136406 2.09495 2.51566e+21 1.67292e-05 -0.813715 -0.566591 -2.52418 
0.0271875 0.0139219 2.00246 2.59816e+21 1.72778e-05 -0.63392 2.51212 1.08833 
0.0275625 0.0139219 1.96538 2.51037e+21 1.66939e-05 2.41183 -1.23134 -0.155982 
0.0271875 0.0140156 1.9565 2.54526e+21 1.69259e-05 -1.58066 2.0319 3.57842 
0.0275625 0.0140156 1.98085 2.55818e+21 1.70119e-05 -1.35465 2.96221 1.08552 
0.0241875 0.0144844 1.91312 2.63479e+21 1.75213e-05 4.59621 -1.66231 1.66698 
0.0245625 0.0144844 2.0379 2.39725e+21 1.59417e-05 -0.121816 -1.44282 0.465154 
0.0241875 0.0145781 2.00378 2.4781e+21 1.64794e-05 -0.414326 -1.07909 2.91061 
0.0245625 0.0145781 1.98685 2.54642e+21 1.69337e-05 2.791 -1.39245 2.66073 
0.0249375 0.0144844 2.01271 2.63166e+21 1.75005e-05 2.197 0.314775 0.550695 
0.0253125 0.0144844 1.9975 2.416e+21 1.60664e-05 0.444918 1.21822 -1.36046 
0.0253125 0.0145781 2.07355 2.42531e+21 1.61283e-05 3.19764 1.21428 2.16995 
0.0256875 0.0142969 1.91408 2.64084e+21 1.75616e-05 -1.83842 -2.43663 -0.050325 
0.0260625 0.0142969 2.00265 2.47619e+21 1.64666e-05 -0.974685 0.170011 -1.07384 
0.0260625 0.0143906 2.05398 2.46005e+21 1.63594e-05 4.6719 5.50131 0.151604 
0.0241875 0.0148594 2.00688 2.46776e+21 1.64106e-05 2.55048 -3.76876 0.110636 
0.0245625 0.0148594 1.9752 2.52869e+21 1.68158e-05 -3.41131 1.68165 -1.76664 
0.0256875 0.0146719 1.91412 2.51472e+21 1.67229e-05 -3.34235 0.161142 2.39953 
0.0260625 0.0146719 1.97555 2.65048e+21 1.76257e-05 1.66757 -3.4844 2.19409 
0.0256875 0.0147656 1.98634 2.52635e+21 1.68002e-05 -1.42093 -0.0483663 4.31636 
0.0260625 0.0147656 2.06371 2.64898e+21 1.76158e-05 1.32008 3.7166 -1.46221 
0.0264375 0.0146719 1.98906 2.4345e+21 1.61894e-05 1.55994 1.60788 -0.731924 
0.0268125 0.0146719 1.96016 2.57335e+21 1.71127e-05 2.54718 0.0325873 0.128497 
0.0264375 0.0147656 1.96399 2.61526e+21 1.73915e-05 -2.72005 -0.734653 1.00705 
0.0268125 0.0148594 2.08359 2.5165e+21 1.67347e-05 -0.282671 0.306529 0.0423152 
0.0264375 0.0149531 1.97681 2.55825e+21 1.70123e-05 0.445378 3.46316 0.901321 
0.0268125 0.0149531 1.98045 2.4432e+21 1.62473e-05 6.79736 -0.70907 0.92483 
0.0271875 0.0144844 1.98207 2.391e+21 1.59001e-05 -2.19428 -0.790903 -0.53703 
0.0275625 0.0144844 2.01893 2.55352e+21 1.69809e-05 -2.80502 2.43346 -0.686162 
0.0271875 0.0145781 1.97564 2.58989e+21 1.72228e-05 -0.0982243 -4.41787 1.59164 
0.0275625 0.0145781 1.9795 2.75758e+21 1.83379e-05 -1.06123 -0.701131 2.60689 
0.0294375 0.0142969 1.94391 2.54268e+21 1.69088e-05 -1.28537 1.11849 -2.72392 
0.0298125 0.0142969 2.12212 2.66617e+21 1.77301e-05 1.77828 2.07305 0.960707 
0.0294375 0.0143906 1.94665 2.54185e+21 1.69033e-05 2.88206 -0.530382 4.58571 
0.0271875 0.0146719 1.93422 2.49312e+21 1.65793e-05 0.300546 3.19064 -2.91517 
0.0271875 0.0147656 2.0207 2.45583e+21 1.63313e-05 2.68054 6.1192 -1.8572 
0.0275625 0.0147656 2.01807 2.68271e+21 1.784e-05 1.6343 1.04299 2.49883 
0.0271875 0.0148594 1.9926 2.56525e+21 1.70589e-05 -0.884188 -0.059654 1.7262 
0.0275625 0.0148594 2.02793 2.58657e+21 1.72007e-05 -0.307681 4.06339 0.229368 
0.0275625 0.0149531 1.98916 2.49467e+21 1.65895e-05 2.48925 -4.15572 -0.947059 
0.0279375 0.0148594 1.99439 2.48603e+21 1.65321e-05 2.44346 0.759418 -1.17359 
0.0283125 0.0148594 2.01144 2.64141e+21 1.75654e-05 0.807232 -0.374071 3.25558 
0.0279375 0.0149531 1.9839 2.48559e+21 1.65291e-05 -0.779564 -2.71883 -4.84186 
0.0283125 0.0149531 1.98583 2.34632e+21 1.5603e-05 -2.00435 1.83787 -0.945195 
0.0286875 0.0146719 2.02203 2.669e+21 1.77488e-05 3.63411 -1.00891 2.01491 
0.0290625 0.0146719 2.01062 2.57335e+21 1.71127e-05 6.7094 -0.891128 2.38312 
0.0286875 0.0147656 1.95558 2.50182e+21 1.66371e-05 0.358532 2.44274 2.21423 
0.0290625 0.0147656 1.9454 2.63979e+21 1.75546e-05 1.7628 0.444216 -0.710316 
0.0294375 0.0148594 2.05109 2.55001e+21 1.69576e-05 4.06027 -1.28841 0.74091 
0.0298125 0.0148594 1.96621 2.48908e+21 1.65524e-05 -2.6393 1.04723 -0.365419 
0.0294375 0.0149531 2.12474 2.52192e+21 1.67707e-05 1.84121 3.20593 0.559778 
0.0298125 0.0149531 2.02388 2.57036e+21 1.70929e-05 -0.185443 -1.29296 -7.33264 
0.0249375 0.0154219 2.08457 2.65662e+21 1.76665e-05 -2.74999 5.87576 -1.57388 
0.0253125 0.0154219 2.02454 2.47755e+21 1.64757e-05 4.56717 0.97286 2.72057 
0.0249375 0.0155156 1.90728 2.60555e+21 1.73269e-05 0.634386 2.51984 -0.940991 