ITEM: TIMESTEP
500000
ITEM: NUMBER OF CELLS
40150
ITEM: BOX BOUNDS oo ao pp
0 0.12
0 0.03
-0.1 0.1
ITEM: CELLS xc yc f_out[1] f_out[2] f_out[3] f_out[4] f_out[5] f_out[6] 
0.003 0.00375 0 0 0 0 0 0 
0.003 0.00525 0 0 0 0 0 0 
0.003 0.00675 0 0 0 0 0 0 
0.003 0.00825 0 0 0 0 0 0 
0.003 0.00975 0 0 0 0 0 0 
0.003 0.01125 0 0 0 0 0 0 
0.003 0.01275 0 0 0 0 0 0 
0.003 0.01425 0 0 0 0 0 0 
0.003 0.01575 0 0 0 0 0 0 
0.003 0.01725 0 0 0 0 0 0 
0.003 0.01875 0 0 0 0 0 0 
0.003 0.02025 0 0 0 0 0 0 
0.003 0.02175 0 0 0 0 0 0 
0.003 0.02325 0 0 0 0 0 0 
0.027 0.02325 0 0 0 0 0 0 
0.003 0.02475 0 0 0 0 0 0 
0.027 0.02475 0 0 0 0 0 0 
0.003 0.02625 0 0 0 0 0 0 
0.027 0.02625 0 0 0 0 0 0 
0.003 0.02775 0 0 0 0 0 0 
0.027 0.02775 0 0 0 0 0 0 
0.003 0.02925 0 0 0 0 0 0 
0.027 0.02925 0 0 0 0 0 0 
0.009 0.01425 0 0 0 0 0 0 
0.009 0.01575 0 0 0 0 0 0 
0.009 0.01725 0 0 0 0 0 0 
0.009 0.01875 0 0 0 0 0 0 
0.009 0.02025 0 0 0 0 0 0 
0.009 0.02175 0 0 0 0 0 0 
0.009 0.02325 0 0 0 0 0 0 
0.009 0.02475 0 0 0 0 0 0 
0.009 0.02625 0 0 0 0 0 0 
0.009 0.02775 0 0 0 0 0 0 
0.009 0.02925 0 0 0 0 0 0 
0.015 0.01425 0 0 0 0 0 0 
0.015 0.01575 0 0 0 0 0 0 
0.015 0.01725 0 0 0 0 0 0 
0.015 0.01875 0 0 0 0 0 0 
0.015 0.02025 0 0 0 0 0 0 
0.015 0.02175 0 0 0 0 0 0 
0.015 0.02325 0 0 0 0 0 0 
0.015 0.02475 0 0 0 0 0 0 
0.015 0.02625 0 0 0 0 0 0 
0.015 0.02775 0 0 0 0 0 0 
0.015 0.02925 0 0 0 0 0 0 
0.021 0.02325 0 0 0 0 0 0 
0.021 0.02475 0 0 0 0 0 0 
0.021 0.02625 0 0 0 0 0 0 
0.021 0.02775 0 0 0 0 0 0 
0.021 0.02925 0 0 0 0 0 0 
0.0015 0.000375 0 0 0 0 0 0 
0.0015 0.001125 0 0 0 0 0 0 
0.0015 0.001875 0 0 0 0 0 0 
0.0015 0.002625 0 0 0 0 0 0 
0.0045 0.002625 0 0 0 0 0 0 
0.0255 0.022125 0 0 0 0 0 0 
0.0285 0.022125 0 0 0 0 0 0 
0.0105 0.000375 2.13158 5.41327e+21 3.59982e-05 5.64268 10.0144 -4.62345 
0.0075 0.013125 0 0 0 0 0 0 
0.0105 0.013125 0 0 0 0 0 0 
0.0135 0.013125 0 0 0 0 0 0 
0.0165 0.013125 0 0 0 0 0 0 
0.0195 0.022125 0 0 0 0 0 0 
0.0225 0.022125 0 0 0 0 0 0 
0.0135 0.000375 2.04246 2.47267e+21 1.64432e-05 1.39545 1.50868 -2.67162 
0.00375 0.0001875 1.89965 1.23294e+22 8.19906e-05 34.1798 2.68144 1.65808 
0.00525 0.0001875 1.8469 9.76339e+21 6.49265e-05 47.7683 3.4518 4.74653 
0.00375 0.0020625 0 0 0 0 0 0 
0.00525 0.0020625 0 0 0 0 0 0 
0.00675 0.0001875 1.68325 6.92642e+21 4.60607e-05 61.0188 3.88497 -1.93283 
0.00825 0.0001875 1.90516 5.02505e+21 3.34166e-05 31.3496 6.71871 -0.35641 
0.00825 0.0005625 2.03277 4.98481e+21 3.3149e-05 30.3006 5.41898 -1.15981 
0.01125 0.0024375 0 0 0 0 0 0 
0.01125 0.0028125 0 0 0 0 0 0 
0.01125 0.0039375 0 0 0 0 0 0 
0.01125 0.0043125 0 0 0 0 0 0 
0.01125 0.0046875 0 0 0 0 0 0 
0.01125 0.0050625 0 0 0 0 0 0 
0.01125 0.0054375 0 0 0 0 0 0 
0.01125 0.0058125 0 0 0 0 0 0 
0.01125 0.0061875 0 0 0 0 0 0 
0.01125 0.0065625 0 0 0 0 0 0 
0.01125 0.0069375 0 0 0 0 0 0 
0.01125 0.0073125 0 0 0 0 0 0 
0.01125 0.0076875 0 0 0 0 0 0 
0.01125 0.0080625 0 0 0 0 0 0 
0.01125 0.0084375 0 0 0 0 0 0 
0.01125 0.0088125 0 0 0 0 0 0 
0.01125 0.0091875 0 0 0 0 0 0 
0.01275 0.0020625 1.97024 2.54905e+21 1.69512e-05 0.582664 1.45864 -3.34834 
0.01125 0.0031875 0 0 0 0 0 0 
0.01125 0.0035625 0 0 0 0 0 0 
0.02475 0.0009375 1.98971 2.35408e+21 1.56546e-05 2.28301 -4.29377 -2.15019 
0.02625 0.0009375 2.09963 2.39633e+21 1.59356e-05 0.795951 0.640772 0.926946 
0.01575 0.0009375 1.93336 2.59854e+21 1.72803e-05 4.30608 0.165012 -2.95266 
0.01725 0.0009375 1.95271 2.41444e+21 1.6056e-05 -2.0193 -4.91586 -1.3359 
0.003375 0.00046875 2.00709 1.44549e+22 9.61249e-05 26.9554 -6.35426 0.66282 
0.004125 0.00046875 1.95631 1.20722e+22 8.02801e-05 34.3091 4.49908 0.377142 
0.003375 0.00065625 1.99545 1.3706e+22 9.11451e-05 28.8514 -3.7567 -0.450769 
0.004125 0.00065625 1.80743 1.23999e+22 8.24591e-05 36.9445 -2.60157 2.29115 
0.004875 0.00046875 1.8949 1.0527e+22 7.00043e-05 44.3036 1.11622 2.23946 
0.005625 0.00046875 1.84726 9.41631e+21 6.26185e-05 49.0619 0.130992 -0.417119 
0.004875 0.00065625 1.86686 1.08305e+22 7.20227e-05 39.4349 -1.1769 0.321404 
0.005625 0.00065625 1.80408 8.43329e+21 5.60814e-05 46.0406 1.17745 -0.268891 
0.003375 0.00084375 1.92514 1.4649e+22 9.74159e-05 24.8361 -4.84811 -0.366502 
0.003375 0.00103125 1.92827 1.38628e+22 9.21877e-05 29.4833 -2.89812 1.39485 
0.004125 0.00103125 1.92659 1.2171e+22 8.09369e-05 29.404 -2.0531 6.94635 
0.004875 0.00084375 1.84298 1.13747e+22 7.56417e-05 41.819 -2.38209 2.05859 
0.005625 0.00084375 1.74604 9.06756e+21 6.02993e-05 48.6142 -2.51056 1.61097 
0.005625 0.00121875 1.86774 8.51554e+21 5.66284e-05 36.3745 4.54636 0.656151 
0.005625 0.00140625 1.95858 8.88514e+21 5.90862e-05 30.1279 -1.00999 0.128064 
0.028875 0.00515625 1.99551 2.5176e+21 1.67421e-05 0.75109 0.658364 -3.26337 
0.024375 0.00534375 1.96591 2.34243e+21 1.55772e-05 4.09126 -2.11262 0.212256 
0.024375 0.00590625 1.9909 2.41252e+21 1.60433e-05 1.39172 -1.41559 -2.22222 
0.024375 0.0216562 1.80494 2.41409e+21 1.60537e-05 -0.703234 0.0536103 -2.51305 
0.025125 0.0216562 1.95661 2.51423e+21 1.67196e-05 -1.8743 -3.36018 -2.25078 
0.025875 0.0216562 2.11739 2.62153e+21 1.74331e-05 0.490222 -2.01271 -2.05778 
0.026625 0.0216562 2.14801 2.41409e+21 1.60537e-05 -4.09114 -2.51788 0.0350432 
0.027375 0.0216562 1.91888 2.41767e+21 1.60775e-05 3.17222 -2.39331 2.38278 
0.028125 0.0216562 2.04373 2.56788e+21 1.70764e-05 0.831827 -1.08422 -3.67901 
0.028875 0.0216562 1.9444 2.41052e+21 1.60299e-05 0.744395 -1.51042 2.55434 
0.029625 0.0216562 2.02407 2.62153e+21 1.74331e-05 2.06501 -2.40001 -0.264585 
0.007875 0.00084375 2.05755 4.86912e+21 3.23796e-05 33.2491 12.3926 -0.748805 
0.008625 0.00084375 1.90038 4.78864e+21 3.18444e-05 22.4997 9.96458 -3.48478 
0.007875 0.00103125 1.89939 5.11422e+21 3.40096e-05 36.2028 14.9646 -0.888302 
0.008625 0.00103125 2.05905 4.62036e+21 3.07254e-05 13.193 9.89393 0.269696 
0.007875 0.00121875 1.97895 4.43885e+21 2.95184e-05 25.4727 16.6602 -3.29243 
0.008625 0.00121875 2.04779 4.13241e+21 2.74805e-05 12.0379 14.2596 -2.4462 
0.007875 0.00140625 1.91515 3.99992e+21 2.65995e-05 24.895 15.6241 -4.78168 
0.008625 0.00140625 1.90764 4.42647e+21 2.9436e-05 16.2962 18.2382 1.63799 
0.006375 0.00159375 1.92939 5.41244e+21 3.59928e-05 31.2661 19.857 -2.81105 
0.007125 0.00159375 1.8689 4.28918e+21 2.85231e-05 28.3527 17.9399 -3.21856 
0.006375 0.00178125 1.77252 3.14513e+21 2.09151e-05 6.31228 16.3759 -4.14627 
0.007125 0.00178125 1.906 3.88216e+21 2.58164e-05 20.6387 18.1249 -0.247636 
0.007875 0.00159375 1.87845 4.16846e+21 2.77203e-05 21.3386 22.9821 3.07528 
0.008625 0.00159375 2.03391 4.21107e+21 2.80036e-05 9.18601 13.5338 -0.546701 
0.007875 0.00178125 1.96005 4.21256e+21 2.80135e-05 12.0804 19.2642 5.07868 
0.008625 0.00178125 1.97532 4.40953e+21 2.93234e-05 7.16578 20.0085 -1.79051 
0.007875 0.00196875 2.02942 4.2885e+21 2.85186e-05 13.8734 16.8592 -1.64885 
0.008625 0.00196875 2.01186 3.96658e+21 2.63778e-05 9.48147 19.2541 -0.10906 
0.007875 0.00215625 2.07261 3.80537e+21 2.53057e-05 5.30738 17.8407 3.09531 
0.008625 0.00215625 1.97602 4.19903e+21 2.79235e-05 6.42038 20.0731 -0.379326 
0.007875 0.00234375 2.04516 3.66512e+21 2.4373e-05 4.36172 21.0454 -2.31581 
0.008625 0.00234375 1.94639 3.83413e+21 2.5497e-05 5.6494 22.6879 -1.85617 
0.007875 0.00253125 1.89719 3.79156e+21 2.52139e-05 3.81032 19.7145 2.1279 
0.007875 0.00271875 1.91049 3.62582e+21 2.41117e-05 2.01985 17.5358 1.07736 
0.008625 0.00271875 1.9188 3.88392e+21 2.5828e-05 -0.967458 19.7392 -3.42426 
0.008625 0.00290625 1.95726 3.69176e+21 2.45502e-05 -1.39358 17.4466 1.0582 
0.007875 0.00309375 2.0366 3.5302e+21 2.34759e-05 -3.71993 16.7332 1.89938 
0.008625 0.00309375 2.00962 3.8192e+21 2.53977e-05 1.03231 13.2512 -0.86423 
0.007875 0.00328125 2.09072 3.4285e+21 2.27996e-05 -3.32317 15.7532 -0.594608 
0.006375 0.00346875 1.9487 3.41366e+21 2.27008e-05 -2.34447 4.35133 3.10921 
0.007125 0.00346875 1.93534 3.452e+21 2.29558e-05 1.7801 8.86032 -0.219091 
0.006375 0.00365625 1.93838 3.12832e+21 2.08034e-05 -0.252275 6.66956 3.40095 
0.007875 0.00346875 1.94219 3.44547e+21 2.29124e-05 -2.66089 14.2124 2.68754 
0.006375 0.00384375 2.08437 3.37874e+21 2.24686e-05 0.30964 6.25656 -1.29869 
0.006375 0.00403125 1.9718 3.19001e+21 2.12136e-05 1.35 5.6966 -0.875202 
0.006375 0.00421875 1.96444 3.16895e+21 2.10735e-05 -3.2484 4.10511 -2.00577 
0.006375 0.00440625 2.06317 3.29417e+21 2.19062e-05 3.75194 4.78355 -0.373159 
0.006375 0.00459375 1.97648 3.37683e+21 2.24559e-05 -1.83483 5.03781 4.47425 
0.006375 0.00496875 1.9702 3.29708e+21 2.19256e-05 1.95557 5.08933 1.90599 
0.006375 0.00515625 2.02192 3.28007e+21 2.18125e-05 -0.604444 2.5289 1.90095 
0.006375 0.00553125 2.07886 3.23417e+21 2.15072e-05 -1.11003 4.74827 1.69075 
0.010125 0.00571875 0 0 0 0 0 0 
0.010125 0.00590625 0 0 0 0 0 0 
0.006375 0.00609375 2.04927 3.14109e+21 2.08883e-05 3.78757 0.296039 0.385395 
0.006375 0.00665625 2.00504 3.14026e+21 2.08827e-05 -0.92892 2.43458 3.68272 
0.006375 0.00721875 2.02016 3.11016e+21 2.06826e-05 -1.14467 10.6664 1.45795 
0.010125 0.00796875 0 0 0 0 0 0 
0.010125 0.00815625 0 0 0 0 0 0 
0.006375 0.00871875 2.08483 2.83551e+21 1.88561e-05 0.805974 2.58815 -2.21385 
0.010125 0.00834375 0 0 0 0 0 0 
0.010125 0.00853125 0 0 0 0 0 0 
0.010125 0.00946875 1.94942 2.72224e+21 1.81029e-05 1.61129 -0.956329 -4.87904 
0.010875 0.00946875 1.9158 2.66068e+21 1.76935e-05 -0.133783 3.14198 -2.1919 
0.011625 0.00946875 2.02088 2.74276e+21 1.82393e-05 3.44097 -3.58728 5.5658 
0.006375 0.0126563 1.96828 2.88428e+21 1.91804e-05 1.72674 -1.28254 -1.65598 
0.016875 0.00384375 1.98408 2.45272e+21 1.63106e-05 3.0968 -0.788412 -3.21832 
0.017625 0.00384375 2.04265 2.56461e+21 1.70546e-05 3.4723 -2.68225 -1.93141 
0.016875 0.00403125 1.92926 2.55762e+21 1.70082e-05 3.99205 0.839601 -1.7787 
0.017625 0.00403125 1.90913 2.57447e+21 1.71202e-05 3.22076 0.244453 -0.0422203 
0.012375 0.00721875 2.25189 2.4458e+21 1.62645e-05 21.0968 1.84979 -3.91868 
0.012375 0.00740625 2.00772 2.63602e+21 1.75295e-05 1.69922 -0.432219 -0.796816 
0.012375 0.00909375 1.85025 2.48289e+21 1.65112e-05 -21.5902 -2.56772 3.39524 
0.012375 0.00928125 1.90114 2.68881e+21 1.78806e-05 5.58468 2.991 -2.76819 
0.012375 0.00946875 1.94379 2.65825e+21 1.76773e-05 1.89983 5.20137 -0.991489 
0.018375 0.00421875 2.11573 2.51102e+21 1.66983e-05 2.02155 1.32981 2.40922 
0.019125 0.00421875 1.94395 2.55394e+21 1.69837e-05 5.59781 -2.27171 3.20109 
0.019875 0.00421875 1.9481 2.43054e+21 1.61631e-05 2.19091 -1.53691 -0.964831 
0.020625 0.00421875 1.90076 2.5298e+21 1.68231e-05 -2.21346 2.35868 -0.555067 
0.019875 0.00440625 1.90601 2.44269e+21 1.62439e-05 1.29055 -3.09224 -0.0851307 
0.022875 0.00440625 2.00547 2.47095e+21 1.64318e-05 2.73004 -3.14029 -1.85898 
0.023625 0.00440625 2.03531 2.44012e+21 1.62268e-05 0.910168 1.34604 1.79417 
0.018375 0.00459375 1.97414 2.65342e+21 1.76452e-05 -0.0782095 0.297914 0.359131 
0.019125 0.00478125 1.94612 2.39314e+21 1.59144e-05 4.2062 -0.472499 0.924049 
0.020625 0.00459375 2.03058 2.3627e+21 1.5712e-05 1.78513 -1.82782 -0.908899 
0.021375 0.00459375 2.10124 2.50806e+21 1.66786e-05 4.85471 0.246208 2.06719 
0.021375 0.00478125 1.91432 2.47362e+21 1.64496e-05 2.47221 -0.403982 -0.96824 
0.022125 0.00478125 1.99631 2.56593e+21 1.70635e-05 1.97505 -1.2687 -0.448774 
0.018375 0.0139688 0 0 0 0 0 0 
0.018375 0.0141563 0 0 0 0 0 0 
0.018375 0.0147187 0 0 0 0 0 0 
0.018375 0.0149062 0 0 0 0 0 0 
0.018375 0.0162188 0 0 0 0 0 0 
0.018375 0.0164062 0 0 0 0 0 0 
0.018375 0.0165937 0 0 0 0 0 0 
0.018375 0.0167812 0 0 0 0 0 0 
0.018375 0.0169687 0 0 0 0 0 0 
0.018375 0.0171562 0 0 0 0 0 0 
0.018375 0.0173437 0 0 0 0 0 0 
0.018375 0.0175312 0 0 0 0 0 0 
0.018375 0.0184687 0 0 0 0 0 0 
0.018375 0.0186562 0 0 0 0 0 0 
0.018375 0.0188437 0 0 0 0 0 0 
0.018375 0.0190312 0 0 0 0 0 0 
0.018375 0.0195938 0 0 0 0 0 0 
0.018375 0.0197812 0 0 0 0 0 0 
0.018375 0.0199687 0 0 0 0 0 0 
0.018375 0.0201562 0 0 0 0 0 0 
0.018375 0.0203437 0 0 0 0 0 0 
0.018375 0.0205312 0 0 0 0 0 0 
0.018375 0.0207187 0 0 0 0 0 0 
0.018375 0.0209062 0 0 0 0 0 0 
0.019875 0.0216562 2.01622 2.33183e+21 1.55067e-05 3.01897 -2.41621 1.90464 
0.020625 0.0216562 2.03884 2.46416e+21 1.63867e-05 0.61922 2.24555 -3.82977 
0.021375 0.0216562 1.9275 2.61795e+21 1.74094e-05 0.102667 -3.12918 -0.593713 
0.022125 0.0216562 1.91992 2.5643e+21 1.70526e-05 -1.7111 1.2345 3.95148 
0.022875 0.0216562 2.05554 2.52496e+21 1.6791e-05 -1.92198 -1.13009 -4.32401 
0.023625 0.0216562 2.07663 2.44628e+21 1.62678e-05 -0.290481 -2.80318 2.46004 
0.00975 0.0016875 2.08997 4.63622e+21 3.08308e-05 5.12492 14.3699 0.387676 
0.01125 0.0016875 0 0 0 0 0 0 
0.01125 0.0020625 0 0 0 0 0 0 
0.02775 0.0009375 1.99309 2.67701e+21 1.78021e-05 4.91026 2.58674 0.342771 
0.02925 0.0009375 1.98454 2.59854e+21 1.72803e-05 1.44059 -1.18454 2.49101 
0.01875 0.0009375 2.08545 2.3903e+21 1.58955e-05 -5.01268 -0.479648 -3.67878 
0.02025 0.0009375 2.08785 2.59854e+21 1.72803e-05 6.48792 -6.33405 1.2587 
0.02325 0.0009375 1.97033 2.60156e+21 1.73004e-05 2.11894 -0.465154 -0.302812 
0.003375 0.00159375 2.01781 1.48796e+22 9.89496e-05 13.7741 -5.47854 -1.5563 
0.004125 0.00159375 1.99353 1.18427e+22 7.87537e-05 14.7121 -0.0609053 -1.36225 
0.003375 0.00178125 0 0 0 0 0 0 
0.004125 0.00178125 0 0 0 0 0 0 
0.025875 0.00309375 1.99086 2.48395e+21 1.65182e-05 0.858006 -0.0623768 -0.046086 
0.026625 0.00309375 1.97631 2.56809e+21 1.70778e-05 -2.5232 -2.33092 5.9437 
0.025875 0.00328125 1.99711 2.44893e+21 1.62854e-05 1.02774 0.166254 -4.30657 
0.026625 0.00328125 1.98301 2.66278e+21 1.77075e-05 -0.504645 3.65798 0.94217 
0.025875 0.00346875 1.92212 2.69177e+21 1.79003e-05 0.921851 0.320411 0.70306 
0.026625 0.00346875 2.01626 2.30024e+21 1.52966e-05 2.06887 2.41208 2.31712 
0.025875 0.00365625 1.92442 2.36801e+21 1.57473e-05 -1.64774 -2.65318 4.99117 
0.026625 0.00365625 1.95545 2.47325e+21 1.64471e-05 2.47866 3.93998 -4.55544 
0.027375 0.00346875 1.98588 2.66893e+21 1.77484e-05 2.36287 -2.19291 -2.18346 
0.028125 0.00346875 2.05193 2.54169e+21 1.69022e-05 3.49717 0.0385935 -0.0722373 
0.027375 0.00365625 1.86574 2.60017e+21 1.72911e-05 3.53083 0.536547 -2.09741 
0.028125 0.00365625 1.9371 2.4392e+21 1.62207e-05 -0.0251566 0.793396 -0.473695 
0.028875 0.00346875 2.04751 2.48948e+21 1.65551e-05 -0.673769 -4.47023 0.0898956 
0.029625 0.00346875 2.0335 2.53516e+21 1.68588e-05 -3.54446 1.05942 -0.00772737 
0.028875 0.00365625 1.97076 2.52278e+21 1.67765e-05 -0.73217 0.843378 -0.791604 
0.029625 0.00365625 1.89766 2.48873e+21 1.65501e-05 -1.58017 0.310617 -3.20033 
0.024375 0.00384375 1.94807 2.51161e+21 1.67022e-05 2.5871 2.02528 1.83581 
0.025125 0.00384375 1.98932 2.45272e+21 1.63106e-05 0.387664 -1.66308 -2.52751 
0.024375 0.00403125 1.9966 2.50709e+21 1.66721e-05 2.09617 3.09136 1.10459 
0.025875 0.00440625 1.90247 2.44269e+21 1.62439e-05 3.54488 -0.731672 1.43254 
0.029625 0.00384375 2.13508 2.59111e+21 1.72309e-05 -1.54768 -1.58724 0.546917 
0.029625 0.00403125 2.01988 2.49866e+21 1.66161e-05 0.878503 1.11751 3.17012 
0.025125 0.00459375 1.98892 2.53516e+21 1.68588e-05 -1.19874 -0.985265 -0.0034499 
0.025875 0.00496875 1.92211 2.41444e+21 1.6056e-05 3.11238 0.331914 4.45906 
0.027375 0.00459375 1.92519 2.5327e+21 1.68424e-05 2.31304 0.966508 2.11716 
0.028125 0.00478125 2.00828 2.51859e+21 1.67486e-05 3.01605 1.32583 0.114538 
0.029625 0.00459375 2.04832 2.57951e+21 1.71537e-05 2.16127 -2.34284 -0.620841 
0.029625 0.00478125 1.99637 2.5612e+21 1.7032e-05 -1.34906 3.3446 -0.117967 
0.027375 0.00496875 1.93807 2.50327e+21 1.66468e-05 0.974084 -2.18329 0.271855 
0.028125 0.00515625 1.94591 2.48468e+21 1.65231e-05 0.0268061 -2.26753 -1.06158 
0.029625 0.00534375 1.99233 2.42079e+21 1.60983e-05 4.08401 1.72821 0.0300234 
0.006375 0.00084375 1.70242 7.16284e+21 4.76329e-05 54.2409 4.63889 3.43285 
0.007125 0.00084375 1.7967 5.27153e+21 3.50556e-05 58.8616 12.6762 -6.59898 
0.006375 0.00103125 1.75919 6.80433e+21 4.52488e-05 52.6975 4.11332 -3.51775 
0.007125 0.00103125 1.82218 5.0813e+21 3.37906e-05 50.4074 12.9339 -0.768603 
0.006375 0.00121875 1.91763 6.17539e+21 4.10664e-05 40.4452 7.38483 -0.729269 
0.007125 0.00121875 1.84969 4.83817e+21 3.21738e-05 46.8278 18.9241 1.07576 
0.006375 0.00140625 1.79438 6.63166e+21 4.41005e-05 42.7485 12.2856 0.710971 
0.007125 0.00140625 1.76976 4.34599e+21 2.89008e-05 38.9092 25.7865 -6.98353 
0.006375 0.00271875 2.12274 3.29384e+21 2.1904e-05 -2.63879 -0.754639 -6.49758 
0.007125 0.00271875 1.95047 3.18873e+21 2.1205e-05 2.15126 7.86594 -3.07782 
0.006375 0.00290625 1.78589 3.13974e+21 2.08793e-05 0.145377 3.23582 -2.33423 
0.007125 0.00290625 1.92846 3.20887e+21 2.1339e-05 -3.45502 8.67052 3.65308 
0.009375 0.00496875 2.02519 3.28128e+21 2.18205e-05 -1.18425 8.64924 -3.64321 
0.010125 0.00496875 0 0 0 0 0 0 
0.009375 0.00515625 1.98774 3.27068e+21 2.175e-05 0.144589 7.71515 0.0879044 
0.010125 0.00515625 0 0 0 0 0 0 
0.006375 0.00571875 2.05837 3.23203e+21 2.1493e-05 0.0690968 7.8252 -1.33129 
0.006375 0.00590625 1.96894 3.07554e+21 2.04523e-05 1.31096 1.29079 1.2746 
0.009375 0.00534375 1.95843 3.24583e+21 2.15847e-05 -0.388444 7.47055 -1.71473 
0.010125 0.00534375 0 0 0 0 0 0 
0.010125 0.00553125 0 0 0 0 0 0 
0.010125 0.00609375 0 0 0 0 0 0 
0.010125 0.00628125 0 0 0 0 0 0 
0.010125 0.00646875 0 0 0 0 0 0 
0.010125 0.00665625 0 0 0 0 0 0 
0.010125 0.00684375 0 0 0 0 0 0 
0.010125 0.00703125 0 0 0 0 0 0 
0.010125 0.00871875 0 0 0 0 0 0 
0.010125 0.00890625 0 0 0 0 0 0 
0.010125 0.00909375 0 0 0 0 0 0 
0.010125 0.00928125 0 0 0 0 0 0 
0.016875 0.00271875 1.87009 2.46856e+21 1.64159e-05 1.76612 -1.82674 0.247393 
0.017625 0.00271875 2.0004 2.53516e+21 1.68588e-05 -2.97901 4.7198 -0.456731 
0.016875 0.00290625 2.03406 2.49622e+21 1.65999e-05 5.02862 -0.712203 -0.569906 
0.017625 0.00290625 2.01132 2.56242e+21 1.70401e-05 1.54358 1.00067 0.861305 
0.015375 0.00346875 1.97256 2.44707e+21 1.6273e-05 0.929108 -1.53903 1.02906 
0.016125 0.00346875 1.94298 2.32635e+21 1.54702e-05 2.64027 5.0561 1.60762 
0.015375 0.00365625 1.90149 2.54754e+21 1.69412e-05 1.05504 -4.48837 -2.95348 
0.016125 0.00365625 2.08647 2.35253e+21 1.56443e-05 1.44876 3.77681 -2.7015 
0.016875 0.00346875 2.00749 2.45359e+21 1.63164e-05 -1.16603 -1.42751 -4.19113 
0.017625 0.00346875 2.10073 2.52537e+21 1.67937e-05 2.82188 3.1448 3.89848 
0.016875 0.00365625 2.0296 2.38968e+21 1.58913e-05 3.89515 -0.948018 -4.33122 
0.017625 0.00365625 2.16203 2.45158e+21 1.6303e-05 1.38003 -1.81213 -0.146185 
0.014625 0.00384375 1.9474 2.66472e+21 1.77204e-05 -4.46109 1.07759 2.40044 
0.013875 0.00403125 1.82216 2.3611e+21 1.57013e-05 -1.46491 -2.77778 -0.560037 
0.014625 0.00403125 2.05728 2.57447e+21 1.71202e-05 -0.868035 -0.388597 1.71028 
0.014625 0.00421875 1.99971 2.42517e+21 1.61274e-05 0.172449 4.17162 0.722924 
0.014625 0.00440625 2.02066 2.44012e+21 1.62268e-05 -1.02203 -0.298518 -2.98966 
0.015375 0.00384375 2.00282 2.45566e+21 1.63301e-05 1.3847 -1.01736 0.582768 
0.016125 0.00384375 1.93467 2.47627e+21 1.64672e-05 1.47141 1.35069 0.320477 
0.015375 0.00403125 1.95311 2.44532e+21 1.62614e-05 -1.2539 -4.30598 2.79918 
0.016125 0.00403125 1.96064 2.4734e+21 1.64481e-05 2.94787 3.32852 -1.71337 
0.015375 0.00421875 1.99201 2.46809e+21 1.64128e-05 1.07255 -0.195421 -0.302682 
0.016125 0.00421875 2.02288 2.44127e+21 1.62344e-05 2.75248 -0.202845 -1.63583 
0.015375 0.00440625 1.93234 2.32711e+21 1.54753e-05 -0.0445796 -7.44648 -1.25334 
0.016125 0.00440625 1.91228 2.57626e+21 1.71321e-05 1.60778 -1.46118 -3.50245 
0.012375 0.00459375 1.72178 2.03256e+21 1.35165e-05 -11.2031 11.7783 -14.9173 
0.013125 0.00459375 1.98398 2.34792e+21 1.56137e-05 -1.19133 -2.55624 -0.429787 
0.012375 0.00478125 1.7565 2.7695e+21 1.84172e-05 -9.01394 -6.9423 -2.6461 
0.013875 0.00459375 2.04104 2.57704e+21 1.71373e-05 1.64369 -2.77943 1.32016 
0.013875 0.00478125 1.92931 2.5825e+21 1.71736e-05 -1.75332 0.48738 1.6632 
0.015375 0.00459375 1.98327 2.48835e+21 1.65475e-05 3.99195 -1.27848 0.990298 
0.016125 0.00459375 2.02875 2.44154e+21 1.62362e-05 -0.258869 0.429372 0.954029 
0.017625 0.00459375 1.97817 2.5598e+21 1.70227e-05 -0.313925 -1.17157 -0.431057 
0.016875 0.00478125 1.96084 2.5612e+21 1.7032e-05 3.80044 -4.25578 2.27924 
0.012375 0.00834375 2.01331 2.46191e+21 1.63717e-05 6.51459 2.06541 2.54157 
0.012375 0.00853125 2.2685 2.6068e+21 1.73352e-05 -1.5253 -3.05839 -3.74524 
0.019875 0.00271875 2.00162 2.61842e+21 1.74125e-05 7.06622 -0.428581 3.73396 
0.020625 0.00271875 2.09992 2.48937e+21 1.65543e-05 0.730276 -1.80946 -0.2325 
0.019875 0.00290625 2.00608 2.66367e+21 1.77134e-05 2.5479 4.65429 -1.33034 
0.020625 0.00290625 1.97033 2.52737e+21 1.6807e-05 0.682804 -0.499471 -0.661474 
0.018375 0.00309375 1.91606 2.41444e+21 1.6056e-05 3.97453 -1.03283 0.383873 
0.019125 0.00309375 2.13509 2.78392e+21 1.85131e-05 3.09414 -3.86754 1.74127 
0.018375 0.00328125 1.96658 2.55931e+21 1.70194e-05 4.52011 -0.840892 0.0528233 
0.019125 0.00328125 1.94264 2.64209e+21 1.75699e-05 -1.37995 2.40371 -0.254408 
0.018375 0.00346875 2.10429 2.48296e+21 1.65117e-05 0.433696 -1.34445 1.38084 
0.019125 0.00346875 1.97417 2.45359e+21 1.63164e-05 3.64905 -1.02244 3.85645 
0.018375 0.00365625 2.01175 2.55064e+21 1.69617e-05 4.01015 -1.18098 1.07059 
0.019125 0.00365625 1.97781 2.53826e+21 1.68794e-05 1.10457 1.49988 1.04063 
0.022875 0.00346875 1.93654 2.48296e+21 1.65117e-05 5.11001 -0.676069 3.19258 
0.023625 0.00346875 1.97177 2.51885e+21 1.67503e-05 2.71957 -2.89968 0.757378 
0.022875 0.00365625 1.97156 2.36801e+21 1.57473e-05 1.66819 0.473293 2.78825 
0.023625 0.00365625 1.95863 2.51968e+21 1.67559e-05 1.95249 -3.34388 -1.30565 
0.019875 0.00384375 1.98611 2.29077e+21 1.52336e-05 2.62643 -4.11853 -3.65302 
0.022125 0.00384375 1.97951 2.61172e+21 1.73679e-05 -0.901175 3.71779 0.835657 
0.021375 0.00403125 1.97568 2.58008e+21 1.71575e-05 1.55432 1.80921 -2.04163 
0.022125 0.00403125 2.0454 2.48463e+21 1.65228e-05 1.18564 2.98776 0.559587 
0.022875 0.00384375 1.9845 2.55577e+21 1.69959e-05 0.720865 -0.553602 0.181457 
0.023625 0.00384375 2.08515 2.51455e+21 1.67218e-05 5.29821 -0.220019 1.05626 
0.019125 0.00496875 1.95034 2.44633e+21 1.62681e-05 0.0911858 -3.79141 -0.547077 
0.022875 0.00496875 2.01079 2.51466e+21 1.67225e-05 6.07106 -2.56607 0.135121 
0.023625 0.00496875 2.02016 2.52149e+21 1.67679e-05 2.06005 -1.11491 -0.924492 
0.018375 0.00534375 2.02837 2.52457e+21 1.67884e-05 2.24229 0.0956054 -0.545523 
0.018375 0.0128438 0 0 0 0 0 0 
0.018375 0.0130313 0 0 0 0 0 0 
0.018375 0.0143437 0 0 0 0 0 0 
0.018375 0.0145312 0 0 0 0 0 0 
0.018375 0.0154687 0 0 0 0 0 0 
0.018375 0.0156563 0 0 0 0 0 0 
0.018375 0.0158438 0 0 0 0 0 0 
0.018375 0.0160313 0 0 0 0 0 0 
0.018375 0.0177187 0 0 0 0 0 0 
0.018375 0.0179062 0 0 0 0 0 0 
0.018375 0.0180937 0 0 0 0 0 0 
0.018375 0.0182812 0 0 0 0 0 0 
0.018375 0.0192187 0 0 0 0 0 0 
0.018375 0.0194062 0 0 0 0 0 0 
0.018375 0.0210937 0 0 0 0 0 0 
0.018375 0.0212812 0 0 0 0 0 0 
0.0039375 0.00135937 1.94999 1.26217e+22 8.39342e-05 23.7153 -0.597467 2.6809 
0.0043125 0.00135937 1.96042 1.17891e+22 7.83977e-05 18.3672 -7.73604 1.93781 
0.0039375 0.00145312 2.01057 1.17451e+22 7.81048e-05 17.3421 1.22456 0.843797 
0.0043125 0.00145312 1.8912 1.05612e+22 7.02321e-05 19.6933 3.42343 2.40409 
0.0256875 0.00867188 1.93511 2.47447e+21 1.64553e-05 3.40842 9.69564 1.40837 
0.0260625 0.00867188 2.11395 2.37529e+21 1.57957e-05 -0.0263821 -7.80167 2.20565 
0.0256875 0.00876563 1.98866 2.54614e+21 1.69318e-05 -0.146628 0.360036 3.50484 
0.0260625 0.00876563 2.02507 2.43768e+21 1.62106e-05 -6.5242 -4.14145 -3.07154 
0.0256875 0.0114844 2.07534 2.51496e+21 1.67245e-05 6.15927 -10.2078 -3.19629 
0.0260625 0.0114844 1.84728 2.51496e+21 1.67245e-05 1.93244 1.55741 2.20649 
0.0256875 0.0115781 2.00587 2.27563e+21 1.5133e-05 0.111245 0.974502 -2.11229 
0.0260625 0.0115781 1.99947 2.45549e+21 1.6329e-05 3.71417 1.50256 1.53585 
0.0249375 0.0118594 1.9669 2.43925e+21 1.6221e-05 3.26363 1.91785 -0.247052 
0.0253125 0.0118594 2.01883 2.51178e+21 1.67033e-05 1.81758 1.77226 2.39569 
0.0249375 0.0119531 1.91104 2.54889e+21 1.69501e-05 2.11501 -0.704111 2.74195 
0.0253125 0.0119531 2.02191 2.54132e+21 1.68998e-05 -7.50478 1.26498 1.22932 
0.0268125 0.0116719 2.03873 2.39311e+21 1.59142e-05 1.66253 -0.682276 1.51434 
0.0264375 0.0117656 1.87846 2.45869e+21 1.63503e-05 3.92948 5.56402 2.97727 
0.0268125 0.0117656 1.9986 2.36634e+21 1.57362e-05 -5.00707 -0.916588 -1.05752 
0.0256875 0.0118594 1.93583 2.5156e+21 1.67287e-05 1.53626 2.80084 0.253881 
0.0260625 0.0118594 1.99919 2.4049e+21 1.59926e-05 1.14168 -0.428778 4.59913 
0.0256875 0.0119531 1.98166 2.71175e+21 1.80331e-05 2.41698 -1.40736 -2.17862 
0.0260625 0.0119531 2.04167 2.38982e+21 1.58923e-05 2.63216 -2.04103 0.521884 
0.0286875 0.0114844 1.9997 2.40458e+21 1.59905e-05 -0.357333 3.03295 0.858253 
0.0290625 0.0114844 2.08609 2.63322e+21 1.75109e-05 3.22176 -0.24345 -4.56178 
0.0286875 0.0115781 1.92814 2.49068e+21 1.65631e-05 5.93661 0.83838 -0.165947 
0.0290625 0.0115781 1.9992 2.52197e+21 1.67711e-05 -1.43526 -3.99545 1.37774 
0.0256875 0.0122344 2.06863 2.531e+21 1.68311e-05 4.58806 3.35865 1.56877 
0.0260625 0.0122344 1.97472 2.41629e+21 1.60683e-05 2.77999 1.36861 -3.36244 
0.0256875 0.0123281 2.04241 2.51175e+21 1.67031e-05 -0.027503 0.336592 1.34202 
0.0260625 0.0123281 1.94656 2.64028e+21 1.75578e-05 0.42951 1.15459 1.8862 
0.0241875 0.0126094 2.06463 2.52753e+21 1.68081e-05 0.0972654 1.2724 -1.49436 
0.0245625 0.0126094 2.02323 2.51676e+21 1.67365e-05 -3.95365 0.509525 1.87256 
0.0241875 0.0127031 2.07253 2.44473e+21 1.62575e-05 0.133087 -0.0596939 0.861269 
0.0245625 0.0127031 2.02291 2.47324e+21 1.64471e-05 -1.26459 0.863744 1.32775 
0.0271875 0.0122344 1.97126 2.5643e+21 1.70526e-05 2.61544 1.49842 -2.06169 
0.0275625 0.0122344 2.0501 2.5384e+21 1.68804e-05 -0.549885 2.05393 1.51809 
0.0271875 0.0123281 2.05693 2.50441e+21 1.66543e-05 1.33932 -1.63092 -0.569917 
0.0275625 0.0123281 2.05376 2.48605e+21 1.65322e-05 1.11483 1.55298 2.89525 
0.0286875 0.0120469 2.03118 2.48396e+21 1.65183e-05 1.48413 3.88105 1.13368 
0.0290625 0.0120469 2.04766 2.5253e+21 1.67932e-05 -2.11996 2.89638 0.832222 
0.0286875 0.0121406 2.01895 2.50953e+21 1.66883e-05 1.48639 3.39966 0.366761 
0.0290625 0.0121406 1.99232 2.50953e+21 1.66883e-05 -2.4305 -1.98117 -3.74921 
0.0279375 0.0126094 1.90798 2.41623e+21 1.6068e-05 -3.30127 -1.7462 0.467809 
0.0283125 0.0126094 2.00155 2.36597e+21 1.57337e-05 -3.72086 0.40479 -0.514464 
0.0279375 0.0127031 2.09145 2.52313e+21 1.67788e-05 4.97669 1.3757 -4.95295 
0.0283125 0.0127031 2.08279 2.50175e+21 1.66366e-05 -1.45566 -2.99455 3.79413 
0.0294375 0.0126094 2.08746 2.49522e+21 1.65932e-05 -0.997957 -4.43718 -3.46158 
0.0298125 0.0126094 2.02266 2.50958e+21 1.66887e-05 -0.776251 -3.69838 2.05357 
0.0294375 0.0127031 2.03782 2.46611e+21 1.63997e-05 1.73754 0.510182 -0.716028 
0.0298125 0.0127031 2.00797 2.49462e+21 1.65892e-05 5.16534 0.382781 -0.342577 
0.0256875 0.0127969 2.02552 2.44097e+21 1.62325e-05 0.210366 -0.0727472 -1.87988 
0.0260625 0.0127969 1.99967 2.41975e+21 1.60913e-05 3.70084 -3.41587 0.91936 
0.0256875 0.0128906 2.04422 2.57072e+21 1.70953e-05 1.34564 4.07603 -0.791266 
0.0260625 0.0128906 2.0219 2.50751e+21 1.66749e-05 4.33754 1.39315 -2.5409 
0.0256875 0.0133594 2.02202 2.53474e+21 1.6856e-05 0.866598 0.638611 1.23473 
0.0260625 0.0133594 2.08347 2.55507e+21 1.69912e-05 2.94923 -0.409762 -3.12967 
0.0256875 0.0134531 2.00378 2.51707e+21 1.67385e-05 0.0309131 -1.73461 -0.720284 
0.0260625 0.0134531 1.9061 2.40603e+21 1.60001e-05 -1.66032 -1.22472 1.29155 
0.0264375 0.0133594 2.03062 2.43647e+21 1.62025e-05 -1.96841 -1.46151 -0.761152 
0.0268125 0.0133594 2.02336 2.53474e+21 1.6856e-05 -1.49203 2.77149 -0.422326 
0.0264375 0.0134531 1.95061 2.59447e+21 1.72532e-05 0.749749 0.318057 0.373585 
0.0268125 0.0134531 2.00609 2.50698e+21 1.66714e-05 -1.93527 -2.0603 0.321097 
0.0294375 0.0129844 2.02923 2.49637e+21 1.66009e-05 3.5652 -0.716955 0.480086 
0.0298125 0.0129844 2.20175 2.3848e+21 1.58589e-05 4.21469 1.36714 -0.423439 
0.0294375 0.0130781 2.04991 2.51309e+21 1.67121e-05 2.10243 -0.919618 -6.5902 
0.0298125 0.0130781 1.98463 2.68963e+21 1.78861e-05 0.770081 1.31016 1.59041 
0.0279375 0.0131719 2.01527 2.49521e+21 1.65931e-05 1.6446 -2.74226 -0.904393 
0.0283125 0.0131719 2.01649 2.53301e+21 1.68445e-05 1.00279 -0.743106 -0.695612 
0.0283125 0.0132656 1.9212 2.42297e+21 1.61128e-05 2.39483 -0.459056 0.46999 
0.0271875 0.0133594 1.98942 2.53474e+21 1.6856e-05 1.12169 0.631051 -2.20148 
0.0275625 0.0133594 1.936 2.49407e+21 1.65856e-05 5.83677 1.73007 -0.815276 
0.0271875 0.0134531 1.95679 2.4666e+21 1.64029e-05 -1.65475 -0.577829 -1.76189 
0.0275625 0.0134531 2.04733 2.42285e+21 1.6112e-05 0.287979 -0.815451 -0.626154 
0.0294375 0.0131719 2.04088 2.54676e+21 1.6936e-05 0.356404 -4.8108 1.40334 
0.0298125 0.0131719 1.92779 2.38179e+21 1.58389e-05 0.630729 3.28863 -0.0845113 
0.0294375 0.0132656 1.89686 2.59702e+21 1.72702e-05 -1.49035 -0.404262 0.722398 
0.0298125 0.0132656 1.95775 2.6209e+21 1.7429e-05 -0.900712 2.49185 1.95066 
0.0294375 0.0133594 2.03548 2.61607e+21 1.73968e-05 2.38819 -1.96469 -2.8986 
0.0298125 0.0133594 1.99845 2.41613e+21 1.60673e-05 -1.28906 0.587584 4.38304 
0.0294375 0.0134531 1.97976 2.58438e+21 1.71861e-05 4.69352 0.95574 1.59283 
0.0298125 0.0134531 2.05484 2.3993e+21 1.59553e-05 1.2452 3.49561 1.64008 
0.0249375 0.0139219 1.98356 2.3868e+21 1.58722e-05 -0.765031 0.752868 3.19941 
0.0253125 0.0139219 1.92638 2.5689e+21 1.70832e-05 -1.04458 2.56426 1.33837 
0.0249375 0.0140156 2.01888 2.55172e+21 1.69689e-05 -0.18204 2.26528 1.29581 
0.0253125 0.0140156 1.98599 2.22871e+21 1.48209e-05 -5.17602 4.77546 0.421646 
0.0241875 0.0141094 1.91545 2.50588e+21 1.66641e-05 0.259409 -0.677343 0.625851 
0.0245625 0.0141094 2.1216 2.4385e+21 1.6216e-05 -0.745998 -1.38351 -4.24058 
0.0241875 0.0142031 2.04826 2.64234e+21 1.75715e-05 3.72163 1.41509 3.0989 
0.0245625 0.0142031 1.88084 2.51803e+21 1.67449e-05 -0.937087 3.29228 -1.23639 