ITEM: TIMESTEP
2600000
ITEM: NUMBER OF SURFS
10
ITEM: BOX BOUNDS oo ao pp
0 0.35
0 0.03
-0.1 0.1
ITEM: SURFS id v1x v1y v2x v2y 
1 0.02 0.0215 0.02 0.002 
2 0.071 0.0215 0.02 0.0215 
3 0.071 0.0035 0.071 0.0215 
4 0.072 0.0035 0.071 0.0035 
5 0.072 0.0225 0.072 0.0035 
6 0.019 0.0225 0.072 0.0225 
7 0.019 0.003 0.019 0.0225 
8 0.01 0.003 0.019 0.003 
9 0.01 0.002 0.01 0.003 
10 0.02 0.002 0.01 0.002 
