ITEM: TIMESTEP
500000
ITEM: NUMBER OF CELLS
44248
ITEM: BOX BOUNDS oo ao pp
0 0.2
0 0.03
-0.1 0.1
ITEM: CELLS xc yc f_out[1] f_out[2] f_out[3] f_out[4] f_out[5] f_out[6] 
0.005 0.01575 0 0 0 0 0 0 
0.005 0.01875 0 0 0 0 0 0 
0.005 0.02175 0 0 0 0 0 0 
0.005 0.02475 0 0 0 0 0 0 
0.005 0.02775 0 0 0 0 0 0 
0.015 0.02475 0 0 0 0 0 0 
0.015 0.02775 0 0 0 0 0 0 
0.005 0.01425 0 0 0 0 0 0 
0.005 0.01725 0 0 0 0 0 0 
0.005 0.02025 0 0 0 0 0 0 
0.005 0.02325 0 0 0 0 0 0 
0.005 0.02625 0 0 0 0 0 0 
0.005 0.02925 0 0 0 0 0 0 
0.015 0.02325 0 0 0 0 0 0 
0.015 0.02625 0 0 0 0 0 0 
0.015 0.02925 0 3.62746e+15 2.41226e-11 -68.9941 3.57375 8.21151 
0.025 0.02325 0 0 0 0 0 0 
0.025 0.02625 0 0 0 0 0 0 
0.025 0.02925 0 0 0 0 0 0 
0.0025 0.003375 0 0 0 0 0 0 
0.0025 0.004125 0 0 0 0 0 0 
0.0025 0.006375 0 0 0 0 0 0 
0.0025 0.007125 0 0 0 0 0 0 
0.0025 0.009375 0 0 0 0 0 0 
0.0025 0.010125 0 0 0 0 0 0 
0.0025 0.012375 0 0 0 0 0 0 
0.0025 0.013125 0 0 0 0 0 0 
0.0075 0.013125 0 0 0 0 0 0 
0.0125 0.013125 0 0 0 0 0 0 
0.0125 0.015375 0 0 0 0 0 0 
0.0125 0.016125 0 0 0 0 0 0 
0.0125 0.018375 0 0 0 0 0 0 
0.0125 0.019125 0 0 0 0 0 0 
0.0125 0.021375 0 0 0 0 0 0 
0.0125 0.022125 0 0 0 0 0 0 
0.0175 0.022125 0 0 0 0 0 0 
0.0025 0.002625 0 0 0 0 0 0 
0.0025 0.004875 0 0 0 0 0 0 
0.0025 0.005625 0 0 0 0 0 0 
0.0025 0.007875 0 0 0 0 0 0 
0.0025 0.008625 0 0 0 0 0 0 
0.0025 0.010875 0 0 0 0 0 0 
0.0025 0.011625 0 0 0 0 0 0 
0.0125 0.013875 0 0 0 0 0 0 
0.0125 0.014625 0 0 0 0 0 0 
0.0125 0.016875 0 0 0 0 0 0 
0.0125 0.017625 0 0 0 0 0 0 
0.0125 0.019875 0 0 0 0 0 0 
0.0125 0.020625 0 0 0 0 0 0 
0.0125 0.000375 2.04474 2.53418e+21 1.68523e-05 -1.83164 1.44474 1.06674 
0.00125 0.0001875 0 0 0 0 0 0 
0.00125 0.0005625 0 0 0 0 0 0 
0.00625 0.0001875 1.72483 8.0763e+21 5.37074e-05 58.0936 1.95838 3.29029 
0.00875 0.0001875 2.1177 4.92849e+21 3.27745e-05 23.0454 5.91809 -2.50914 
0.00125 0.0009375 0 0 0 0 0 0 
0.00125 0.0013125 0 0 0 0 0 0 
0.01125 0.0031875 0 0 0 0 0 0 
0.01125 0.0035625 0 0 0 0 0 0 
0.01125 0.0039375 0 0 0 0 0 0 
0.01125 0.0043125 0 0 0 0 0 0 
0.01125 0.0061875 0 0 0 0 0 0 
0.01125 0.0065625 0 0 0 0 0 0 
0.01125 0.0069375 0 0 0 0 0 0 
0.01125 0.0073125 0 0 0 0 0 0 
0.01125 0.0091875 0 0 0 0 0 0 
0.01625 0.0129375 0 0 0 0 0 0 
0.01625 0.0133125 0 0 0 0 0 0 
0.01625 0.0151875 0 0 0 0 0 0 
0.01625 0.0155625 0 0 0 0 0 0 
0.01625 0.0159375 0 0 0 0 0 0 
0.01625 0.0163125 0 0 0 0 0 0 
0.01625 0.0181875 0 0 0 0 0 0 
0.01625 0.0185625 0 0 0 0 0 0 
0.01625 0.0189375 0 0 0 0 0 0 
0.01625 0.0193125 0 0 0 0 0 0 
0.01625 0.0211875 0 0 0 0 0 0 
0.01625 0.0215625 0 0 0 0 0 0 
0.00125 0.0016875 0 0 0 0 0 0 
0.00125 0.0020625 0 0 0 0 0 0 
0.00375 0.0020625 0 0 0 0 0 0 
0.01125 0.0046875 0 0 0 0 0 0 
0.01125 0.0050625 0 0 0 0 0 0 
0.01125 0.0054375 0 0 0 0 0 0 
0.01125 0.0058125 0 0 0 0 0 0 
0.01125 0.0076875 0 0 0 0 0 0 
0.01125 0.0080625 0 0 0 0 0 0 
0.01125 0.0084375 0 0 0 0 0 0 
0.01125 0.0088125 0 0 0 0 0 0 
0.01625 0.0136875 0 0 0 0 0 0 
0.01625 0.0140625 0 0 0 0 0 0 
0.01625 0.0144375 0 0 0 0 0 0 
0.01625 0.0148125 0 0 0 0 0 0 
0.01625 0.0166875 0 0 0 0 0 0 
0.01625 0.0170625 0 0 0 0 0 0 
0.01625 0.0174375 0 0 0 0 0 0 
0.01625 0.0178125 0 0 0 0 0 0 
0.01625 0.0196875 0 0 0 0 0 0 
0.01625 0.0200625 0 0 0 0 0 0 
0.01625 0.0204375 0 0 0 0 0 0 
0.01625 0.0208125 0 0 0 0 0 0 
0.01125 0.0016875 0 0 0 0 0 0 
0.01125 0.0020625 0 0 0 0 0 0 
0.01125 0.0024375 0 0 0 0 0 0 
0.01125 0.0028125 0 0 0 0 0 0 
0.003125 0.00046875 2.00886 1.33747e+22 8.89419e-05 25.08 0.263008 1.59015 
0.004375 0.00046875 1.87665 1.28062e+22 8.51611e-05 36.2923 -2.18974 3.57354 
0.003125 0.00065625 2.04636 1.28891e+22 8.57126e-05 23.1752 -6.49042 1.0259 
0.005625 0.00046875 1.79226 9.30042e+21 6.18478e-05 54.5841 -0.165884 -1.49698 
0.006875 0.00046875 1.69403 5.66427e+21 3.76674e-05 57.4045 2.80343 1.55783 
0.005625 0.00065625 1.7603 9.6957e+21 6.44764e-05 45.9459 2.40029 0.518991 
0.006875 0.00065625 1.6961 6.16717e+21 4.10117e-05 55.7471 7.03809 0.84926 
0.003125 0.00084375 1.94369 1.37665e+22 9.15475e-05 27.4812 -6.47964 2.57793 
0.006875 0.00084375 1.70612 5.77856e+21 3.84274e-05 58.2894 8.37302 -0.409496 
0.006875 0.00103125 1.79899 5.72881e+21 3.80966e-05 49.8719 11.9489 -3.24265 
0.008125 0.00084375 1.97231 4.50695e+21 2.99712e-05 31.2768 8.96126 1.46996 
0.009375 0.00084375 2.00203 4.33361e+21 2.88185e-05 0.127114 7.20736 0.0277032 
0.008125 0.00103125 1.89645 4.91887e+21 3.27105e-05 37.7227 15.8413 -0.0998211 
0.009375 0.00103125 2.00432 4.81199e+21 3.19998e-05 4.35277 9.11475 -1.39295 
0.005625 0.00309375 0 0 0 0 0 0 
0.005625 0.00328125 0 0 0 0 0 0 
0.009375 0.00309375 1.96957 3.7708e+21 2.50758e-05 1.1249 12.5063 1.20859 
0.005625 0.00346875 0 0 0 0 0 0 
0.005625 0.00365625 0 0 0 0 0 0 
0.005625 0.00384375 0 0 0 0 0 0 
0.005625 0.00403125 0 0 0 0 0 0 
0.005625 0.00421875 0 0 0 0 0 0 
0.005625 0.00440625 0 0 0 0 0 0 
0.005625 0.00609375 0 0 0 0 0 0 
0.005625 0.00628125 0 0 0 0 0 0 
0.005625 0.00646875 0 0 0 0 0 0 
0.005625 0.00665625 0 0 0 0 0 0 
0.005625 0.00684375 0 0 0 0 0 0 
0.005625 0.00703125 0 0 0 0 0 0 
0.005625 0.00721875 0 0 0 0 0 0 
0.005625 0.00740625 0 0 0 0 0 0 
0.005625 0.00909375 0 0 0 0 0 0 
0.005625 0.00928125 0 0 0 0 0 0 
0.005625 0.00946875 0 0 0 0 0 0 
0.005625 0.00965625 0 0 0 0 0 0 
0.005625 0.00984375 0 0 0 0 0 0 
0.005625 0.0100312 0 0 0 0 0 0 
0.005625 0.0102187 0 0 0 0 0 0 
0.005625 0.0104062 0 0 0 0 0 0 
0.005625 0.0120938 0 0 0 0 0 0 
0.005625 0.0122813 0 0 0 0 0 0 
0.005625 0.0124688 0 0 0 0 0 0 
0.005625 0.0126563 0 0 0 0 0 0 
0.013125 0.00309375 2.00935 2.39615e+21 1.59344e-05 2.43448 -0.147185 0.901354 
0.018125 0.00309375 1.99218 2.37713e+21 1.58079e-05 3.03628 -1.99275 -2.2819 
0.019375 0.00309375 2.04135 2.42322e+21 1.61144e-05 2.13346 -2.76101 -4.15581 
0.010625 0.00946875 2.02478 2.77832e+21 1.84758e-05 2.20863 0.670891 -2.98002 
0.011875 0.00946875 1.99378 2.68804e+21 1.78754e-05 6.54445 2.33815 0.578098 
0.018125 0.0128438 0 0 0 0 0 0 
0.018125 0.0130313 0 0 0 0 0 0 
0.018125 0.0132188 0 0 0 0 0 0 
0.018125 0.0134063 0 0 0 0 0 0 
0.018125 0.0150937 0 0 0 0 0 0 
0.018125 0.0152812 0 0 0 0 0 0 
0.018125 0.0154687 0 0 0 0 0 0 
0.018125 0.0156563 0 0 0 0 0 0 
0.018125 0.0158438 0 0 0 0 0 0 
0.018125 0.0160313 0 0 0 0 0 0 
0.018125 0.0162188 0 0 0 0 0 0 
0.018125 0.0164062 0 0 0 0 0 0 
0.018125 0.0180937 0 0 0 0 0 0 
0.018125 0.0182812 0 0 0 0 0 0 
0.018125 0.0184687 0 0 0 0 0 0 
0.018125 0.0186562 0 0 0 0 0 0 
0.018125 0.0188437 0 0 0 0 0 0 
0.018125 0.0190312 0 0 0 0 0 0 
0.018125 0.0192187 0 0 0 0 0 0 
0.018125 0.0194062 0 0 0 0 0 0 
0.018125 0.0210937 0 0 0 0 0 0 
0.018125 0.0212812 0 0 0 0 0 0 
0.018125 0.0214687 0 0 0 0 0 0 
0.018125 0.0216562 0 0 0 0 0 0 
0.019375 0.0216562 1.96793 2.56656e+21 1.70676e-05 0.438233 -0.944491 1.12803 
0.003125 0.00159375 1.99558 1.42371e+22 9.46765e-05 19.5573 1.41074 -3.77084 
0.003125 0.00178125 0 0 0 0 0 0 
0.004375 0.00178125 0 0 0 0 0 0 
0.005625 0.00178125 0 0 0 0 0 0 
0.006875 0.00178125 2.00147 3.31916e+21 2.20724e-05 15.0647 21.2672 2.99534 
0.009375 0.00196875 1.92272 4.53813e+21 3.01786e-05 1.18815 13.708 0.210866 
0.009375 0.00215625 2.02359 4.06276e+21 2.70173e-05 -4.31464 17.1597 -0.322629 
0.005625 0.00271875 0 0 0 0 0 0 
0.005625 0.00290625 0 0 0 0 0 0 
0.009375 0.00271875 2.01771 3.91066e+21 2.60059e-05 -0.277729 15.5814 -2.69234 
0.005625 0.00459375 0 0 0 0 0 0 
0.005625 0.00478125 0 0 0 0 0 0 
0.005625 0.00534375 0 0 0 0 0 0 
0.005625 0.00553125 0 0 0 0 0 0 
0.005625 0.00571875 0 0 0 0 0 0 
0.005625 0.00590625 0 0 0 0 0 0 
0.005625 0.00759375 0 0 0 0 0 0 
0.005625 0.00778125 0 0 0 0 0 0 
0.005625 0.00796875 0 0 0 0 0 0 
0.005625 0.00815625 0 0 0 0 0 0 
0.005625 0.00834375 0 0 0 0 0 0 
0.005625 0.00853125 0 0 0 0 0 0 
0.005625 0.00871875 0 0 0 0 0 0 
0.005625 0.00890625 0 0 0 0 0 0 
0.005625 0.0105937 0 0 0 0 0 0 
0.005625 0.0107812 0 0 0 0 0 0 
0.005625 0.0109687 0 0 0 0 0 0 
0.005625 0.0111562 0 0 0 0 0 0 
0.005625 0.0113437 0 0 0 0 0 0 
0.005625 0.0115312 0 0 0 0 0 0 
0.005625 0.0117188 0 0 0 0 0 0 
0.005625 0.0119063 0 0 0 0 0 0 
0.015625 0.00196875 2.03633 2.47308e+21 1.6446e-05 3.48064 -3.80262 -3.38236 
0.016875 0.00196875 1.97288 2.45583e+21 1.63313e-05 -1.91565 4.86009 -0.942601 
0.015625 0.00215625 1.97052 2.47533e+21 1.64609e-05 -0.914513 -2.47417 1.69282 
0.016875 0.00215625 1.93328 2.50367e+21 1.66494e-05 0.449329 -0.0726143 -0.424221 
0.015625 0.00234375 1.93493 2.36712e+21 1.57413e-05 4.44915 0.70454 4.42738 
0.016875 0.00234375 1.97694 2.43665e+21 1.62037e-05 0.868873 2.27352 -4.98504 
0.015625 0.00253125 2.08297 2.72027e+21 1.80898e-05 -0.965764 1.90622 -1.19987 
0.016875 0.00253125 1.96745 2.36615e+21 1.57349e-05 3.29972 -2.62856 2.10629 
0.016875 0.00271875 1.92101 2.53266e+21 1.68422e-05 2.04822 -0.0790284 1.64444 
0.015625 0.00290625 1.98731 2.55619e+21 1.69987e-05 -2.04361 -2.00145 -0.243201 
0.018125 0.00271875 1.97335 2.44524e+21 1.62609e-05 3.81676 0.87148 -1.47551 
0.019375 0.00271875 1.94045 2.44025e+21 1.62277e-05 -0.552003 -1.244 -1.67027 
0.018125 0.0135938 0 0 0 0 0 0 
0.018125 0.0137813 0 0 0 0 0 0 
0.018125 0.0139688 0 0 0 0 0 0 
0.018125 0.0141563 0 0 0 0 0 0 
0.018125 0.0143437 0 0 0 0 0 0 
0.018125 0.0145312 0 0 0 0 0 0 
0.018125 0.0147187 0 0 0 0 0 0 
0.018125 0.0149062 0 0 0 0 0 0 
0.018125 0.0165937 0 0 0 0 0 0 
0.018125 0.0167812 0 0 0 0 0 0 
0.018125 0.0169687 0 0 0 0 0 0 
0.018125 0.0171562 0 0 0 0 0 0 
0.018125 0.0173437 0 0 0 0 0 0 
0.018125 0.0175312 0 0 0 0 0 0 
0.018125 0.0177187 0 0 0 0 0 0 
0.018125 0.0179062 0 0 0 0 0 0 
0.018125 0.0195938 0 0 0 0 0 0 
0.018125 0.0197812 0 0 0 0 0 0 
0.018125 0.0199687 0 0 0 0 0 0 
0.018125 0.0201562 0 0 0 0 0 0 
0.018125 0.0203437 0 0 0 0 0 0 
0.018125 0.0205312 0 0 0 0 0 0 
0.018125 0.0207187 0 0 0 0 0 0 
0.018125 0.0209062 0 0 0 0 0 0 
0.023125 0.00234375 2.03334 2.44245e+21 1.62423e-05 1.32476 -1.07833 -0.413578 
0.024375 0.00234375 1.98945 2.41347e+21 1.60496e-05 4.46927 2.32425 -0.775231 
0.023125 0.00253125 2.08229 2.49492e+21 1.65912e-05 3.60438 -1.56532 -0.876497 
0.024375 0.00253125 2.00314 2.61296e+21 1.73762e-05 2.20855 -0.749381 -2.68752 
0.024375 0.00271875 1.95417 2.57263e+21 1.7108e-05 2.66139 0.404289 0.529488 
0.023125 0.00290625 1.95739 2.29917e+21 1.52895e-05 -0.175882 0.342175 -2.3021 
0.024375 0.00290625 1.99137 2.5632e+21 1.70453e-05 3.62651 -0.38585 2.08485 
0.025625 0.00271875 2.09216 2.39779e+21 1.59453e-05 5.25929 -4.85971 0.497896 
0.026875 0.00271875 2.00277 2.37031e+21 1.57626e-05 2.84531 -1.54095 -2.30201 
0.026875 0.00290625 1.98711 2.6146e+21 1.73871e-05 3.54337 1.17988 -0.456471 
0.008125 0.00121875 2.01218 4.45743e+21 2.96419e-05 25.3379 18.7004 -0.818536 
0.009375 0.00121875 2.06125 4.61637e+21 3.06988e-05 4.22685 12.1181 0.572002 
0.009375 0.00140625 2.03662 4.58124e+21 3.04653e-05 6.24416 15.4746 -1.48705 
0.013125 0.00346875 1.99959 2.39813e+21 1.59475e-05 -1.28522 0.81037 0.30709 
0.009375 0.00159375 2.04151 4.33589e+21 2.88336e-05 7.39005 11.3553 -2.31107 
0.008125 0.00178125 2.00296 4.12869e+21 2.74558e-05 16.9043 19.001 2.54205 
0.009375 0.00178125 1.95147 4.61872e+21 3.07145e-05 1.78714 17.7021 3.90294 
0.005625 0.00496875 0 0 0 0 0 0 
0.005625 0.00515625 0 0 0 0 0 0 
0.015625 0.00159375 1.93856 2.35195e+21 1.56405e-05 -3.10009 0.732086 -0.430833 
0.016875 0.00159375 2.01756 2.53516e+21 1.68588e-05 -0.063204 -2.52558 -1.55586 
0.015625 0.00178125 1.92885 2.56185e+21 1.70363e-05 2.34746 2.99745 -1.14831 
0.016875 0.00178125 2.06128 2.27974e+21 1.51603e-05 2.77229 -1.64009 1.33287 
0.020625 0.00196875 2.0672 2.30407e+21 1.5322e-05 4.43404 -0.450478 -1.84428 
0.021875 0.00196875 2.12444 2.32821e+21 1.54826e-05 1.72164 4.34531 0.334797 
0.020625 0.00215625 2.06978 2.53516e+21 1.68588e-05 -0.95827 5.28579 -1.177 
0.021875 0.00215625 2.11222 2.35565e+21 1.56651e-05 3.04156 -1.46931 -1.49389 
0.025625 0.00196875 1.92753 2.46618e+21 1.64001e-05 2.77366 -3.15949 4.4097 
0.026875 0.00196875 1.9535 2.40064e+21 1.59643e-05 3.0018 -2.46688 -1.34763 
0.025625 0.00215625 1.91655 2.62964e+21 1.74871e-05 1.4915 -2.08056 -4.31882 
0.026875 0.00215625 2.09241 2.44698e+21 1.62724e-05 2.27508 -3.56912 1.21227 
0.028125 0.00196875 2.0401 2.35235e+21 1.56432e-05 2.23542 2.92957 -1.15223 
0.029375 0.00196875 1.91942 2.44893e+21 1.62854e-05 2.4218 -1.36806 -1.86904 
0.028125 0.00215625 2.08143 2.41549e+21 1.6063e-05 0.408217 1.32592 -0.413221 
0.029375 0.00215625 2.01122 2.3777e+21 1.58117e-05 3.10214 -0.0651754 0.014154 
0.020625 0.00271875 1.98709 2.51268e+21 1.67093e-05 -0.478767 3.43476 1.13552 
0.021875 0.00271875 2.01883 2.52767e+21 1.6809e-05 2.35548 1.38892 1.18494 
0.020625 0.00290625 1.98246 2.49077e+21 1.65636e-05 3.05687 -1.04767 -2.4472 
0.021875 0.00290625 1.98708 2.46273e+21 1.63771e-05 1.13279 -0.13816 1.42062 
0.025625 0.00234375 1.98469 2.44534e+21 1.62615e-05 0.602846 1.72644 -2.53454 
0.026875 0.00234375 1.97904 2.52067e+21 1.67625e-05 2.49278 -2.21432 -0.216616 
0.025625 0.00253125 2.06232 2.40371e+21 1.59847e-05 3.56762 0.49743 -0.541821 
0.026875 0.00253125 1.96055 2.39566e+21 1.59311e-05 2.44678 2.60893 -1.96937 
0.028125 0.00271875 2.08833 2.43026e+21 1.61612e-05 1.49272 -0.604145 3.95542 
0.029375 0.00271875 2.00289 2.56264e+21 1.70415e-05 1.31279 1.091 -2.02534 
0.0040625 0.000609375 1.9994 1.20351e+22 8.00331e-05 33.8796 -2.50908 9.37596 
0.0046875 0.000609375 1.83072 1.23025e+22 8.18116e-05 42.2134 7.63337 2.13784 
0.0040625 0.000703125 1.89462 1.25551e+22 8.34913e-05 27.6835 -2.16495 -2.51727 
0.0046875 0.000703125 1.91139 1.10871e+22 7.37293e-05 40.6583 7.01532 -4.25354 
0.0040625 0.000796875 1.97246 1.25778e+22 8.36424e-05 30.7423 -0.0366802 1.19442 
0.0046875 0.000796875 1.97083 1.06008e+22 7.04954e-05 34.7619 4.72098 5.11685 
0.0040625 0.000890625 1.90028 1.30227e+22 8.66011e-05 34.2589 -3.06345 -1.07289 
0.0046875 0.000890625 2.05541 1.04914e+22 6.97676e-05 38.0297 -0.465294 -1.72802 
0.0040625 0.000984375 1.82985 1.20032e+22 7.98214e-05 31.5737 -0.56236 -3.35274 
0.0046875 0.000984375 1.74962 1.03476e+22 6.88115e-05 34.3536 2.52228 3.2222 
0.0040625 0.00107813 1.91501 1.21688e+22 8.09224e-05 33.6325 -7.19489 1.06392 
0.0046875 0.00107813 1.76298 1.07327e+22 7.13725e-05 34.519 -0.319121 -2.23493 
0.0040625 0.00117188 1.99118 1.22383e+22 8.13848e-05 27.6003 -6.61008 -1.06867 
0.0046875 0.00117188 1.86416 1.02218e+22 6.79748e-05 27.9848 -1.34483 0.528574 
0.0040625 0.00126563 2.03095 1.16322e+22 7.73543e-05 19.6241 -3.59208 2.96783 
0.0046875 0.00126563 1.97169 1.09025e+22 7.25019e-05 29.0188 -2.04016 2.55197 
0.0040625 0.00135937 1.99859 1.17092e+22 7.78662e-05 24.6813 2.84187 0.666832 
0.0046875 0.00135937 1.82893 1.089e+22 7.24182e-05 20.2418 6.28046 -3.09548 
0.0040625 0.00145312 1.98707 1.15706e+22 7.69446e-05 19.0783 0.209221 -1.66746 
0.0046875 0.00145312 1.87442 1.04678e+22 6.96106e-05 14.3544 2.89368 -0.022644 
0.0053125 0.000984375 1.83782 9.43701e+21 6.27561e-05 41.6954 5.74205 2.63698 
0.0059375 0.000984375 1.76666 7.80899e+21 5.19298e-05 47.0556 4.86365 0.93847 
0.0053125 0.00107813 1.77236 9.97688e+21 6.63463e-05 35.4121 2.93769 -2.48003 
0.0059375 0.00107813 1.89794 7.88577e+21 5.24404e-05 38.5972 2.5169 -2.24065 
0.0065625 0.00604688 2.0177 3.13904e+21 2.08746e-05 -2.10152 5.38732 1.89163 
0.0071875 0.00604688 1.94328 3.35102e+21 2.22843e-05 -0.209614 12.8833 0.811377 
0.0065625 0.00614063 2.00908 3.35968e+21 2.23419e-05 2.68743 4.01658 -2.40283 
0.0071875 0.00614063 1.90484 3.02118e+21 2.00909e-05 0.473379 6.073 0.0401581 
0.0078125 0.00604688 1.9514 3.21177e+21 2.13582e-05 0.0290403 5.55583 -0.266588 
0.0084375 0.00604688 1.84811 3.2477e+21 2.15972e-05 -2.2273 7.30925 -4.49188 
0.0078125 0.00614063 1.96884 3.31313e+21 2.20323e-05 -2.32175 5.90331 0.420377 
0.0084375 0.00614063 1.96485 3.20254e+21 2.12969e-05 0.881839 8.57634 2.53447 
0.0078125 0.00623438 1.96315 3.33302e+21 2.21646e-05 1.36494 5.92063 2.94311 
0.0084375 0.00623438 2.00072 3.28509e+21 2.18458e-05 -0.567759 8.05064 -2.01602 
0.0078125 0.00632813 2.03241 3.24071e+21 2.15507e-05 1.39412 8.58091 0.647028 
0.0084375 0.00632813 1.98544 3.22784e+21 2.14651e-05 2.0748 11.4154 -0.910293 
0.0065625 0.00660938 1.98143 3.14587e+21 2.092e-05 6.12015 5.5489 0.0537702 
0.0071875 0.00660938 2.0259 3.36994e+21 2.24101e-05 -1.62983 6.5488 0.133251 
0.0065625 0.00670313 1.92988 2.93785e+21 1.95367e-05 -2.97477 2.32538 1.97329 
0.0071875 0.00670313 1.97208 3.20124e+21 2.12883e-05 -3.52319 8.63187 1.27111 
0.0078125 0.00642188 1.95783 3.11727e+21 2.07298e-05 -2.18009 8.64134 0.215507 
0.0084375 0.00642188 1.97496 3.14688e+21 2.09267e-05 0.230367 4.08808 2.07895 
0.0078125 0.00651563 2.05566 3.03907e+21 2.02098e-05 -0.6883 11.5862 -1.95262 
0.0084375 0.00651563 2.00483 3.09326e+21 2.05702e-05 -2.22958 4.94454 4.28592 
0.0078125 0.00660938 1.92237 3.17679e+21 2.11256e-05 1.32825 6.08644 -3.91446 
0.0084375 0.00660938 1.92374 3.12747e+21 2.07977e-05 1.1568 8.93529 0.661753 
0.0078125 0.00670313 2.08008 3.15262e+21 2.09649e-05 3.64546 8.72318 -4.2435 
0.0084375 0.00670313 1.86971 3.04726e+21 2.02643e-05 -2.85552 5.44244 0.954867 
0.0078125 0.00679687 1.93516 2.94928e+21 1.96127e-05 2.0738 5.63475 -3.08285 
0.0084375 0.00679687 1.90519 2.88134e+21 1.91609e-05 -1.10221 9.24285 5.08104 
0.0084375 0.00689062 2.05697 3.10231e+21 2.06304e-05 0.257382 3.53647 1.81005 
0.0078125 0.00698437 2.03618 3.06844e+21 2.04052e-05 1.23093 6.24905 -1.36837 
0.0084375 0.00698437 2.03674 2.88955e+21 1.92155e-05 -2.24208 7.24958 -1.66177 
0.0078125 0.00707812 2.1082 3.04315e+21 2.0237e-05 1.39642 7.69769 2.02915 
0.0084375 0.00707812 2.08269 3.05467e+21 2.03135e-05 2.03916 6.92059 3.42004 
0.0065625 0.00717187 2.12166 2.87659e+21 1.91293e-05 -1.14904 2.34491 -3.21473 
0.0071875 0.00717187 2.04769 3.18517e+21 2.11814e-05 2.46115 7.6461 -1.05219 
0.0065625 0.00726562 2.08132 3.02639e+21 2.01255e-05 -3.8915 4.09659 -0.998684 
0.0065625 0.00735937 1.99684 3.1636e+21 2.10379e-05 1.32696 2.81041 -3.30984 
0.0071875 0.00735937 1.99855 2.9896e+21 1.98808e-05 0.97937 7.35719 0.21622 
0.0065625 0.00745312 1.99822 3.18454e+21 2.11772e-05 -0.176211 6.21714 1.10576 
0.0078125 0.00717187 1.98856 3.16623e+21 2.10554e-05 0.500308 4.11629 -2.92695 
0.0084375 0.00717187 1.92542 3.12836e+21 2.08036e-05 -0.906417 6.69909 1.27067 
0.0078125 0.00726562 1.99227 2.9534e+21 1.96401e-05 -0.237731 9.04286 0.0803554 
0.0084375 0.00726562 1.91061 2.96088e+21 1.96899e-05 4.31778 6.37708 -0.0773098 
0.0084375 0.00735937 1.95741 3.03389e+21 2.01754e-05 -1.62214 8.10063 -2.02691 
0.0078125 0.00745312 1.98506 3.15244e+21 2.09637e-05 1.22135 4.86567 -0.877659 
0.0084375 0.00745312 1.94629 3.03582e+21 2.01882e-05 0.80255 5.10282 -0.536056 
0.0065625 0.00904687 2.00366 2.87731e+21 1.91341e-05 1.07907 8.39009 -0.693126 
0.0065625 0.00914062 2.06448 2.8478e+21 1.89379e-05 0.863337 2.88288 1.6987 
0.0065625 0.00932812 2.04518 2.93962e+21 1.95485e-05 -4.97765 2.57468 -4.62649 
0.0071875 0.00932812 2.00999 3.04583e+21 2.02548e-05 1.80723 2.90309 1.89561 
0.0078125 0.00904687 1.98232 2.9844e+21 1.98462e-05 2.03368 4.95572 3.26119 
0.0084375 0.00904687 2.00019 2.97839e+21 1.98063e-05 0.152333 6.81983 -1.68881 
0.0084375 0.00914062 2.07446 2.95973e+21 1.96822e-05 0.988675 8.36357 4.06225 
0.0078125 0.00932812 2.03759 2.90315e+21 1.9306e-05 1.83295 2.87312 -3.01113 
0.0084375 0.00932812 2.00524 3.04583e+21 2.02548e-05 1.58498 4.37764 0.858838 
0.0065625 0.00942187 1.98388 2.87605e+21 1.91257e-05 -1.85443 1.67076 -0.31448 
0.0065625 0.00951562 1.9455 2.94286e+21 1.957e-05 -0.968299 5.91999 -1.22612 
0.0065625 0.00960937 1.95414 2.85695e+21 1.89987e-05 -1.83959 2.24192 -1.11299 
0.0065625 0.00970312 2.06392 2.96265e+21 1.97016e-05 -1.4599 3.31405 -1.00593 
0.0078125 0.00951562 2.02118 2.95727e+21 1.96659e-05 1.69057 5.785 -2.59719 
0.0084375 0.00951562 2.04087 2.88305e+21 1.91723e-05 3.7675 0.81371 -2.26349 
0.0078125 0.00960937 1.97215 2.84645e+21 1.89289e-05 1.20238 8.68679 0.371459 
0.0096875 0.00960937 2.01687 2.78991e+21 1.85529e-05 5.61434 2.33697 2.94768 
0.0096875 0.00970312 2.01371 2.72097e+21 1.80944e-05 4.8611 2.41103 0.569331 
0.0065625 0.00989062 1.97573 2.82802e+21 1.88063e-05 -0.179714 7.50497 -0.639311 
0.0065625 0.00998437 1.9615 2.81118e+21 1.86943e-05 -1.9306 4.93126 -2.01516 
0.0071875 0.00998437 1.94883 2.8538e+21 1.89778e-05 -0.314103 4.23207 3.4436 
0.0084375 0.00979687 2.05629 2.94169e+21 1.95622e-05 -0.875082 5.04355 -0.311102 
0.0078125 0.00989062 1.96407 2.98795e+21 1.98699e-05 -0.329073 8.06564 -2.87017 
0.0096875 0.00979687 1.94798 2.7282e+21 1.81425e-05 1.77399 3.64464 -1.61925 
0.0096875 0.00989062 1.96241 2.83691e+21 1.88654e-05 3.25543 2.0512 0.887387 
0.0078125 0.0100781 2.01307 2.80839e+21 1.86758e-05 1.54489 3.54336 -3.76304 
0.0090625 0.0100781 2.00242 2.75987e+21 1.83532e-05 5.04714 3.74699 -0.294981 
0.0065625 0.0101719 1.89939 3.00732e+21 1.99987e-05 1.56048 1.88191 -4.27035 
0.0065625 0.0102656 1.98837 2.76881e+21 1.84126e-05 -6.00781 2.8259 -1.01561 
0.0065625 0.0103594 2.02749 2.88422e+21 1.918e-05 -0.0110507 1.94802 -0.665147 
0.0065625 0.0104531 1.92077 2.83979e+21 1.88846e-05 0.704664 2.74425 1.42041 
0.0071875 0.0104531 2.04822 2.83756e+21 1.88698e-05 -0.949866 3.95538 1.09148 
0.0078125 0.0101719 1.98321 3.06556e+21 2.0386e-05 4.67583 3.69608 -0.0013922 
0.0084375 0.0102656 1.96342 2.83382e+21 1.88449e-05 5.48694 3.44476 1.17191 
0.0096875 0.0101719 1.94266 2.71841e+21 1.80775e-05 1.26643 -1.10801 -0.276032 
0.0084375 0.0104531 1.96155 2.92071e+21 1.94227e-05 6.69271 10.4454 0.358459 
0.0096875 0.0103594 1.98788 2.71641e+21 1.80641e-05 4.58698 -1.17059 1.46319 
0.0096875 0.0104531 2.04429 2.81158e+21 1.8697e-05 7.60544 0.280312 0.252268 
0.0065625 0.0124219 2.02861 2.84787e+21 1.89383e-05 -0.308357 1.5756 -1.32497 
0.0065625 0.0127031 2.23193 2.72181e+21 1.81e-05 -0.919361 -0.0149976 5.24547 
0.0071875 0.0127031 1.94553 2.75919e+21 1.83486e-05 2.49785 1.57483 -0.54755 
0.0078125 0.0127031 2.05157 2.80969e+21 1.86844e-05 5.94737 -1.09552 1.92538 
0.0084375 0.0127031 2.02197 2.89692e+21 1.92645e-05 2.98814 0.120511 -1.8252 
0.0090625 0.0127031 2.09877 2.79592e+21 1.85928e-05 -0.716975 -2.30847 1.96082 
0.0096875 0.0127031 2.03148 2.74542e+21 1.8257e-05 6.69199 -4.57563 -0.184035 
0.0190625 0.00660938 1.98566 2.47814e+21 1.64796e-05 -1.49439 1.29995 2.19653 
0.0196875 0.00660938 1.99535 2.51924e+21 1.67529e-05 1.9673 -0.132379 -2.2392 
0.0190625 0.00670313 1.94145 2.37054e+21 1.57641e-05 3.41851 -3.52914 -2.61216 
0.0196875 0.00670313 2.07182 2.63393e+21 1.75157e-05 3.45604 -3.80193 -0.894337 
0.0128125 0.00735937 1.9592 2.45334e+21 1.63147e-05 2.77391 1.24334 -0.143819 
0.0134375 0.00735937 2.08492 2.59837e+21 1.72791e-05 -0.822223 -2.64423 0.0581299 
0.0128125 0.00745312 1.95602 2.3796e+21 1.58244e-05 1.2233 -2.22237 -4.4285 
0.0134375 0.00745312 1.94036 2.44906e+21 1.62863e-05 3.7738 -0.901579 0.034855 
0.0153125 0.00735937 2.07835 2.56146e+21 1.70337e-05 -0.141132 1.32587 1.96681 
0.0159375 0.00735937 2.18636 2.26988e+21 1.50947e-05 -2.64956 -0.42617 -1.66764 
0.0153125 0.00745312 2.01329 2.44542e+21 1.6262e-05 1.51609 0.148812 -0.549023 
0.0159375 0.00745312 1.9254 2.56933e+21 1.7086e-05 4.40273 -2.77062 1.63098 
0.0178125 0.00717187 1.97991 2.60949e+21 1.73531e-05 -2.34178 0.0465003 6.39548 
0.0184375 0.00717187 1.85554 2.3974e+21 1.59427e-05 3.57408 1.00431 -1.86262 
0.0178125 0.00726562 1.94098 2.49357e+21 1.65822e-05 2.73926 -3.33921 -2.04516 
0.0184375 0.00726562 2.03445 2.34777e+21 1.56127e-05 2.16912 0.871941 -2.01686 
0.0140625 0.00904687 1.99455 2.54004e+21 1.68913e-05 1.42878 -4.513 -1.05012 
0.0146875 0.00904687 1.97507 2.42295e+21 1.61126e-05 -3.13289 -4.2906 -0.00637492 
0.0140625 0.00914062 1.97596 2.55262e+21 1.69749e-05 -0.0616442 -2.82521 -2.92889 
0.0103125 0.00960937 1.99271 2.76447e+21 1.83838e-05 1.72273 -2.12761 -1.57377 
0.0128125 0.00960937 2.05577 2.50725e+21 1.66732e-05 2.72478 -4.35536 1.23008 
0.0134375 0.00960937 2.04829 2.49311e+21 1.65792e-05 3.57424 -1.26303 1.62599 
0.0128125 0.00970312 2.06227 2.46623e+21 1.64004e-05 3.66655 -1.96537 0.24219 
0.0134375 0.00970312 1.90529 2.50262e+21 1.66424e-05 6.48013 -3.10108 -2.56122 
0.0140625 0.00960937 2.06234 2.47615e+21 1.64664e-05 3.92946 -2.16769 -1.46865 
0.0146875 0.00960937 2.07416 2.44506e+21 1.62597e-05 4.93291 -4.46015 -0.294453 
0.0140625 0.00970312 1.96314 2.5838e+21 1.71823e-05 5.31512 -0.443361 2.72504 
0.0146875 0.00970312 2.02794 2.63139e+21 1.74987e-05 2.12376 -2.12853 4.67478 
0.0165625 0.00904687 1.95159 2.41694e+21 1.60727e-05 4.31336 -2.99677 3.13499 
0.0171875 0.00904687 2.03396 2.51002e+21 1.66916e-05 -0.818319 -3.07711 1.55238 
0.0165625 0.00914062 1.98155 2.51399e+21 1.6718e-05 0.483377 -3.83596 7.81287 
0.0171875 0.00914062 2.07029 2.54073e+21 1.68959e-05 3.78403 -2.24024 1.08161 
0.0153125 0.00923437 1.97959 2.43552e+21 1.61962e-05 -2.47021 -4.4901 3.10742 
0.0159375 0.00923437 1.9345 2.62377e+21 1.74481e-05 2.79657 1.52664 -2.46681 
0.0153125 0.00932812 1.92366 2.54499e+21 1.69242e-05 5.663 -2.95188 -0.527112 
0.0178125 0.00923437 2.00828 2.50023e+21 1.66265e-05 4.10731 -2.65283 1.94859 
0.0184375 0.00923437 2.02248 2.61201e+21 1.73698e-05 4.65561 2.57272 0.36094 
0.0178125 0.00932812 1.94967 2.39357e+21 1.59172e-05 4.63489 -0.528978 1.48789 
0.0184375 0.00932812 1.98796 2.5479e+21 1.69435e-05 -0.997846 -0.325348 2.66638 
0.0178125 0.00942187 2.07229 2.40723e+21 1.60081e-05 1.75426 -2.04429 -0.414415 
0.0184375 0.00942187 2.0781 2.5975e+21 1.72734e-05 0.582584 -0.667394 -2.14886 
0.0178125 0.00951562 1.97752 2.59189e+21 1.72361e-05 3.30686 -5.94568 -1.03687 
0.0184375 0.00951562 1.86108 2.50626e+21 1.66666e-05 1.61052 -0.834633 3.45651 
0.0190625 0.00942187 1.99692 2.56003e+21 1.70242e-05 -0.921999 -0.73162 -4.69317 
0.0196875 0.00942187 1.99387 2.52831e+21 1.68133e-05 2.32078 -0.193306 -1.62081 
0.0196875 0.00951562 2.05391 2.42919e+21 1.61541e-05 4.173 0.287593 0.462538 
0.0178125 0.00960937 2.00921 2.48463e+21 1.65228e-05 3.84125 -0.195853 -4.49834 
0.0178125 0.00970312 2.00288 2.66218e+21 1.77035e-05 6.50859 -2.20085 -2.25777 
0.0184375 0.00970312 2.01951 2.56141e+21 1.70333e-05 -0.411296 1.75194 -0.283605 
0.0109375 0.00979687 1.98429 2.65889e+21 1.76816e-05 1.37418 1.97545 -1.77608 
0.0115625 0.00979687 2.02019 2.63393e+21 1.75157e-05 3.94389 -2.09331 0.753289 
0.0115625 0.00989062 1.92841 2.71882e+21 1.80801e-05 3.24925 -3.86462 -0.576825 
0.0121875 0.00989062 2.01613 2.54306e+21 1.69113e-05 5.49563 -0.619009 0.874431 
0.0103125 0.0100781 1.95905 2.67093e+21 1.77617e-05 2.59229 -0.245123 2.66254 
0.0109375 0.0100781 1.8973 2.71136e+21 1.80305e-05 4.32892 0.0612678 0.488632 
0.0115625 0.00998437 2.03373 2.628e+21 1.74762e-05 1.39851 -6.21959 -0.540531 
0.0121875 0.0100781 2.07209 2.67632e+21 1.77975e-05 -0.361438 -1.21402 3.17457 
0.0134375 0.00979687 2.02151 2.51194e+21 1.67044e-05 5.01308 -2.19333 -1.60732 
0.0128125 0.00989062 1.97532 2.54031e+21 1.68931e-05 2.20968 -1.68798 0.542836 
0.0134375 0.00989062 2.05106 2.52933e+21 1.682e-05 4.58827 -3.09044 2.37514 
0.0128125 0.00998437 1.95623 2.63072e+21 1.74943e-05 9.82241 -1.1714 -2.51353 
0.0134375 0.00998437 2.00688 2.51374e+21 1.67164e-05 1.67815 -5.71913 -1.28328 
0.0128125 0.0100781 1.99782 2.5793e+21 1.71523e-05 6.6145 -0.814912 -1.4448 
0.0103125 0.0101719 1.98204 2.69438e+21 1.79176e-05 5.01543 -0.672328 0.732703 
0.0103125 0.0102656 1.95043 2.77561e+21 1.84578e-05 5.27217 1.54717 -0.485178 
0.0121875 0.0101719 1.9725 2.54484e+21 1.69232e-05 2.48587 0.452574 1.68292 
0.0121875 0.0102656 2.00757 2.51631e+21 1.67335e-05 3.26482 -2.7935 -0.773723 
0.0128125 0.0101719 1.93777 2.64097e+21 1.75625e-05 6.95167 -2.0579 3.99968 
0.0134375 0.0101719 2.02542 2.56887e+21 1.7083e-05 6.93706 -0.225766 -1.79991 
0.0128125 0.0102656 1.96341 2.48985e+21 1.65575e-05 8.45097 1.59533 -2.81062 
0.0134375 0.0102656 2.09787 2.53483e+21 1.68566e-05 5.94541 -0.139643 2.44229 
0.0146875 0.0101719 1.99951 2.2965e+21 1.52717e-05 9.22221 -2.46399 -0.403547 
0.0146875 0.0102656 1.97932 2.59569e+21 1.72613e-05 5.67746 0.0262647 0.453024 
0.0128125 0.0104531 2.13785 2.68165e+21 1.7833e-05 7.22192 -1.40424 0.785203 
0.0159375 0.00998437 2.01642 2.51646e+21 1.67344e-05 3.52658 0.879764 -0.588466 
0.0159375 0.0100781 1.90194 2.41758e+21 1.60769e-05 4.28013 -0.383663 -5.79008 
0.0165625 0.00998437 2.05313 2.49741e+21 1.66078e-05 7.61241 -2.29213 -3.14188 
0.0171875 0.00998437 1.94248 2.54366e+21 1.69154e-05 6.3017 -0.747071 0.708598 
0.0171875 0.0100781 2.02449 2.47149e+21 1.64354e-05 4.43168 2.45722 -0.63861 
0.0178125 0.00979687 1.97184 2.58403e+21 1.71838e-05 5.49301 1.65875 -2.14187 
0.0184375 0.00979687 1.91781 2.42876e+21 1.61513e-05 3.04962 1.74244 -3.58539 
0.0178125 0.00989062 2.02413 2.57601e+21 1.71305e-05 2.10813 3.20863 -0.490199 
0.0184375 0.00989062 2.03283 2.47989e+21 1.64913e-05 0.359494 -1.23509 1.20859 
0.0190625 0.00979687 1.93413 2.51471e+21 1.67228e-05 0.565177 -1.62649 -0.232654 
0.0190625 0.00989062 1.95459 2.40025e+21 1.59617e-05 2.71285 -2.33972 -1.4496 
0.0178125 0.00998437 1.95847 2.39132e+21 1.59022e-05 1.73874 0.413333 0.453999 
0.0184375 0.00998437 1.99573 2.47565e+21 1.64631e-05 6.7811 -4.1994 2.08109 
0.0153125 0.0101719 2.0173 2.6116e+21 1.73671e-05 1.34359 1.88548 1.72247 
0.0153125 0.0102656 1.99707 2.51631e+21 1.67335e-05 1.54948 0.0957397 1.93637 
0.0165625 0.0101719 2.06135 2.64898e+21 1.76158e-05 2.49347 -2.02048 -0.20824 
0.0165625 0.0102656 2.12283 2.72799e+21 1.81411e-05 2.06458 -3.15393 0.575635 
0.0171875 0.0102656 2.08579 2.49514e+21 1.65927e-05 3.22704 -0.531199 1.72659 
0.0178125 0.0101719 1.95222 2.50212e+21 1.66391e-05 2.04881 -0.157537 2.00528 
0.0184375 0.0102656 1.95224 2.5216e+21 1.67686e-05 2.38239 1.66095 0.936233 
0.0178125 0.0103594 2.06435 2.48829e+21 1.65471e-05 -0.527516 0.852051 0.916065 
0.0184375 0.0103594 1.94153 2.42012e+21 1.60938e-05 2.21807 1.17667 -1.85067 
0.0178125 0.0104531 2.01717 2.56212e+21 1.70381e-05 2.19483 0.260846 -4.19313 
0.0115625 0.0123281 1.95297 2.75191e+21 1.83002e-05 5.04107 1.08747 -2.28527 
0.0134375 0.0120469 1.94051 2.58843e+21 1.72131e-05 3.55176 -0.390416 0.804669 