ITEM: TIMESTEP
500000
ITEM: NUMBER OF CELLS
6919
ITEM: BOX BOUNDS oo ao pp
0 0.12
0 0.03
-0.1 0.1
ITEM: CELLS xc yc f_out[1] f_out[2] f_out[3] f_out[4] f_out[5] f_out[6] 
0.003 0.00675 0 0 0 0 0 0 
0.003 0.01275 0 0 0 0 0 0 
0.009 0.00675 0 0 0 0 0 0 
0.009 0.01275 0 0 0 0 0 0 
0.003 0.00825 0 0 0 0 0 0 
0.003 0.01425 0 0 0 0 0 0 
0.009 0.00825 0 0 0 0 0 0 
0.009 0.01425 0 0 0 0 0 0 
0.015 0.00825 0 0 0 0 0 0 
0.015 0.01425 0 0 0 0 0 0 
0.003 0.00375 0 0 0 0 0 0 
0.003 0.00975 0 0 0 0 0 0 
0.009 0.00375 0 0 0 0 0 0 
0.009 0.00975 0 0 0 0 0 0 
0.003 0.00525 0 0 0 0 0 0 
0.003 0.01125 0 0 0 0 0 0 
0.009 0.00525 0 0 0 0 0 0 
0.009 0.01125 0 0 0 0 0 0 
0.015 0.00525 0 0 0 0 0 0 
0.015 0.01125 0 0 0 0 0 0 
0.0015 0.000375 0 0 0 0 0 0 
0.0015 0.001125 0 0 0 0 0 0 
0.0015 0.001875 0 0 0 0 0 0 
0.0015 0.002625 0 0 0 0 0 0 
0.0045 0.002625 0 0 0 0 0 0 
0.0075 0.002625 0 0 0 0 0 0 
0.0105 0.002625 0 0 0 0 0 0 
0.0135 0.002625 0 0 0 0 0 0 
0.0165 0.002625 0 0 0 0 0 0 
0.00375 0.0001875 0 0 0 0 0 0 
0.00525 0.0001875 3.59808 8.48917e+23 0.0056453 21.761 6.13856 1.45234 
0.00375 0.0005625 0 0 0 0 0 0 
0.00375 0.0009375 0 0 0 0 0 0 
0.00375 0.0013125 0 0 0 0 0 0 
0.00675 0.0001875 3.98639 8.39259e+23 0.00558107 20.2652 4.25487 -1.13692 
0.00825 0.0001875 3.7584 8.11252e+23 0.00539482 29.9029 -0.44937 5.47764 
0.01125 0.0001875 3.85043 6.64454e+23 0.00441862 26.0971 -4.53231 4.02497 
0.00375 0.0016875 0 0 0 0 0 0 
0.00375 0.0020625 0 0 0 0 0 0 
0.004875 0.00046875 3.46536 8.57609e+23 0.0057031 15.5294 -8.02947 0.880305 
0.005625 0.00046875 3.86003 9.47233e+23 0.0062991 21.7003 -4.23707 -1.52569 
0.004875 0.00065625 3.64698 7.94695e+23 0.00528473 14.7771 -6.05691 10.3025 
0.005625 0.00065625 3.95344 8.92929e+23 0.00593798 21.7551 2.37458 2.07125 
0.004875 0.00084375 3.8593 8.16402e+23 0.00542908 21.6639 -5.02487 -0.232589 
0.005625 0.00084375 3.86527 8.55892e+23 0.00569168 18.7795 -3.05872 -2.31884 
0.004875 0.00103125 3.82239 7.85966e+23 0.00522667 6.22746 -12.1577 -5.20027 
0.004875 0.00121875 4.06294 8.96834e+23 0.00596395 13.1478 -8.88632 -1.82411 
0.004875 0.00140625 4.02079 8.91604e+23 0.00592917 18.13 -4.46512 2.09916 
0.006375 0.00046875 4.10525 8.25159e+23 0.00548731 18.2589 5.17098 1.77234 
0.007125 0.00046875 3.90395 7.50987e+23 0.00499407 17.2792 -1.99099 -5.9749 
0.006375 0.00065625 3.9574 7.85866e+23 0.00522601 21.239 -2.97883 5.83908 
0.007125 0.00065625 3.99688 8.14563e+23 0.00541684 25.9437 -6.87277 -4.09447 
0.007875 0.00046875 3.6772 7.86528e+23 0.00523041 24.3433 5.17648 1.5621 
0.008625 0.00046875 3.73674 7.9889e+23 0.00531262 24.3512 -2.94641 -3.9565 
0.007875 0.00065625 3.98647 7.39508e+23 0.00491773 23.5974 -4.35628 3.88472 
0.008625 0.00065625 4.18672 8.17874e+23 0.00543886 27.3708 4.65857 1.24565 
0.009375 0.00046875 3.77135 7.54078e+23 0.00501462 35.7237 -0.617609 2.37011 
0.010125 0.00046875 3.87056 7.77256e+23 0.00516875 26.7225 0.190027 -0.337844 
0.009375 0.00065625 3.87059 7.28471e+23 0.00484433 22.8925 -2.96932 -4.58451 
0.010125 0.00065625 3.80088 7.43923e+23 0.00494709 26.6886 3.37752 -0.4454 
0.010875 0.00046875 3.89625 7.72621e+23 0.00513793 28.1486 1.58783 2.60563 
0.011625 0.00046875 3.83794 7.6644e+23 0.00509682 33.4117 0.699045 1.54888 
0.010875 0.00065625 3.84098 7.01981e+23 0.00466817 34.1351 -1.89454 -5.51861 
0.011625 0.00065625 3.72262 7.00877e+23 0.00466083 25.172 -4.7524 -2.05509 
0.007125 0.00084375 4.06906 8.79929e+23 0.00585153 21.0801 2.31252 1.96561 
0.007875 0.00084375 3.94692 7.46008e+23 0.00496095 19.4277 -0.407078 0.361078 
0.009375 0.00084375 3.8772 7.46008e+23 0.00496095 26.202 0.774935 3.72763 
0.010875 0.00084375 3.92242 7.12528e+23 0.00473831 30.0014 -1.68321 2.2661 
0.011625 0.00084375 4.06206 6.79048e+23 0.00451567 30.2786 -3.11997 0.803438 
0.010875 0.00103125 3.85872 7.43121e+23 0.00494175 31.3529 -3.79748 -0.716287 
0.011625 0.00103125 3.89362 6.73585e+23 0.00447934 25.8773 -0.164158 -2.1923 
0.004875 0.00159375 3.90976 9.08056e+23 0.00603858 17.9159 -5.3509 3.62346 
0.004875 0.00178125 3.83194 8.21011e+23 0.00545972 18.5847 -5.08395 3.5496 
0.004875 0.00196875 4.06484 9.40416e+23 0.00625377 10.4564 -6.794 -3.79952 
0.004875 0.00215625 0 0 0 0 0 0 
0.005625 0.00215625 0 0 0 0 0 0 
0.006375 0.00215625 0 0 0 0 0 0 
0.007125 0.00215625 0 0 0 0 0 0 
0.007875 0.00215625 0 0 0 0 0 0 
0.008625 0.00215625 0 0 0 0 0 0 
0.010125 0.00196875 4.01869 7.30687e+23 0.00485907 4.32605 -6.29905 1.72806 
0.009375 0.00215625 0 0 0 0 0 0 
0.010125 0.00215625 0 0 0 0 0 0 
0.010875 0.00196875 3.98808 7.28444e+23 0.00484415 2.68318 -5.66178 -1.23006 
0.010875 0.00215625 0 0 0 0 0 0 
0.011625 0.00215625 0 0 0 0 0 0 
0.012375 0.00215625 0 0 0 0 0 0 
0.013125 0.00215625 0 0 0 0 0 0 
0.013875 0.00215625 0 0 0 0 0 0 
0.014625 0.00215625 0 0 0 0 0 0 
0.015375 0.00215625 0 0 0 0 0 0 
0.016125 0.00215625 0 0 0 0 0 0 
0.017625 0.00196875 3.89695 5.80961e+23 0.00386339 9.28994 2.36048 -3.02887 
0.016875 0.00215625 0 0 0 0 0 0 
0.017625 0.00215625 0 0 0 0 0 0 
0.0054375 0.00117188 4.29216 8.38139e+23 0.00557362 22.5263 -6.17228 2.5017 
0.0058125 0.00117188 4.04306 8.57918e+23 0.00570515 18.0406 -4.23097 -8.99387 
0.0054375 0.00126563 4.18776 8.69914e+23 0.00578493 19.6891 -3.74266 -0.479767 
0.0058125 0.00126563 4.02601 9.15699e+23 0.0060894 18.4526 -6.5968 -6.697 
0.0054375 0.00135937 3.89691 8.65335e+23 0.00575448 12.6198 -6.56759 4.89353 
0.0058125 0.00135937 3.99315 8.90911e+23 0.00592456 12.842 -0.432953 7.10071 
0.0054375 0.00145312 3.87652 8.35427e+23 0.00555559 20.9519 -1.07118 -3.38974 
0.0058125 0.00145312 3.98126 8.85274e+23 0.00588707 16.4217 4.70529 2.86554 
0.0084375 0.000984375 4.00224 7.15226e+23 0.00475625 19.1558 0.0432046 1.89321 
0.0088125 0.000984375 4.11734 7.68206e+23 0.00510857 24.198 -3.07915 0.183607 
0.0084375 0.00107813 3.81415 7.71277e+23 0.00512899 16.0453 0.884387 -5.65742 
0.0088125 0.00107813 4.12988 7.65902e+23 0.00509325 20.7339 5.06075 5.3538 
0.0069375 0.00117188 3.90014 8.13415e+23 0.00540921 23.122 3.59646 4.1692 
0.0073125 0.00117188 3.815 8.65335e+23 0.00575448 25.3019 7.24721 1.93609 
0.0069375 0.00126563 3.82075 8.21839e+23 0.00546523 12.937 1.57184 -3.67788 
0.0073125 0.00126563 3.82685 8.33286e+23 0.00554135 21.1171 5.16351 -7.35989 
0.0099375 0.000984375 4.10312 7.41716e+23 0.00493241 28.0098 -4.89206 -6.45912 
0.0103125 0.000984375 3.94031 6.62246e+23 0.00440394 18.7541 6.40618 -0.472396 
0.0099375 0.00107813 3.80722 7.52465e+23 0.00500389 27.9592 -4.46489 0.332359 
0.0103125 0.00107813 3.65378 6.74531e+23 0.00448563 32.6038 4.96178 5.9938 
0.0091875 0.00135937 4.22184 7.65161e+23 0.00508832 16.8747 1.29176 -5.10677 
0.0095625 0.00135937 4.03217 7.14008e+23 0.00474815 19.142 0.458091 2.20039 
0.0091875 0.00145312 3.91676 7.9555e+23 0.00529041 14.4812 -5.20665 1.46749 
0.0095625 0.00145312 4.10885 7.39722e+23 0.00491915 21.0756 -3.7013 -0.785645 
0.0099375 0.00135937 3.93744 7.60898e+23 0.00505997 16.7551 5.06582 0.823856 
0.0103125 0.00135937 3.89274 7.11877e+23 0.00473398 15.7014 -4.18331 1.19989 
0.0099375 0.00145312 3.74026 7.63648e+23 0.00507826 13.9081 2.31827 0.597319 
0.0103125 0.00145312 3.76216 7.63648e+23 0.00507826 21.2827 11.5088 1.3091 
0.0054375 0.00154688 3.97478 8.747e+23 0.00581676 11.8868 -0.163059 2.55633 
0.0058125 0.00154688 4.02108 8.29748e+23 0.00551782 10.5104 1.92419 -5.96627 
0.0054375 0.00164063 4.33666 9.44805e+23 0.00628295 16.9066 -5.17501 -4.31258 
0.0058125 0.00164063 4.05432 8.37079e+23 0.00556658 14.3274 -2.41013 7.58245 
0.0061875 0.00154688 4.01976 7.79176e+23 0.00518152 15.5397 4.29345 -1.99812 
0.0065625 0.00154688 4.03184 8.22256e+23 0.005468 2.77656 2.79647 -0.950061 
0.0061875 0.00164063 4.37864 8.03525e+23 0.00534344 12.8567 -6.29965 0.801102 
0.0065625 0.00164063 4.21087 7.94695e+23 0.00528473 10.5028 -4.12431 7.90702 
0.0069375 0.00154688 3.82203 8.22256e+23 0.005468 15.7351 2.47809 12.8118 
0.0073125 0.00154688 4.02282 8.61589e+23 0.00572957 17.5722 -0.0155288 -4.9648 
0.0069375 0.00164063 3.81531 8.03525e+23 0.00534344 12.3761 1.76047 -1.45347 
0.0073125 0.00164063 3.71576 7.94695e+23 0.00528473 5.36054 5.71065 -2.01599 
0.0061875 0.00173438 3.84443 7.98514e+23 0.00531012 11.7425 -4.44288 -3.74543 
0.0065625 0.00173438 4.15031 8.23572e+23 0.00547675 11.805 -1.22575 -0.642356 
0.0061875 0.00182813 4.03295 8.36808e+23 0.00556477 16.1382 5.38949 -4.36949 
0.0065625 0.00182813 3.9023 8.13035e+23 0.00540668 -0.293342 2.8704 -1.20855 
0.0076875 0.00154688 4.24036 8.05398e+23 0.0053559 14.8879 4.33228 7.85484 
0.0080625 0.00154688 4.04513 7.28605e+23 0.00484522 15.693 -1.56545 -5.49385 
0.0076875 0.00164063 3.93188 7.9293e+23 0.00527298 10.8976 -4.83014 4.77109 
0.0080625 0.00164063 3.63078 8.37079e+23 0.00556658 11.6627 -0.53123 -1.8675 
0.0084375 0.00154688 4.21578 8.42859e+23 0.00560501 11.138 -2.32779 2.34652 
0.0088125 0.00154688 4.05154 7.73557e+23 0.00514415 8.29222 -0.733695 -1.51336 
0.0084375 0.00164063 3.89688 7.96461e+23 0.00529647 8.35748 -3.59467 8.88134 
0.0088125 0.00164063 4.07345 7.98227e+23 0.00530821 16.1521 0.417043 -2.63483 
0.0076875 0.00173438 4.02457 7.43386e+23 0.00494352 4.37981 -1.70828 -1.78039 
0.0080625 0.00173438 3.89567 7.88491e+23 0.00524346 15.3776 -5.63177 3.55348 
0.0076875 0.00182813 3.90944 7.5598e+23 0.00502726 6.3983 -5.00095 -1.85147 
0.0080625 0.00182813 3.7588 7.84507e+23 0.00521697 7.6592 2.28214 1.64144 
0.0084375 0.00173438 3.97951 7.83479e+23 0.00521014 6.55532 -5.67026 3.55714 
0.0088125 0.00173438 3.74018 7.88491e+23 0.00524346 14.0746 6.9645 -5.75325 
0.0084375 0.00182813 3.70931 7.78168e+23 0.00517481 4.56229 6.0099 -2.98075 
0.0088125 0.00182813 4.21196 7.92431e+23 0.00526967 14.0364 -5.60964 -1.55718 
0.0061875 0.00192187 3.75612 8.41214e+23 0.00559407 1.21918 7.1654 1.26865 
0.0065625 0.00192187 3.9694 8.03525e+23 0.00534344 0.746822 -4.93474 3.51196 
0.0061875 0.00201563 3.85061 8.3224e+23 0.0055344 9.73088 -4.25313 -0.898536 
0.0065625 0.00201563 3.99759 8.10339e+23 0.00538876 -1.92179 -1.41435 -10.2593 
0.0069375 0.00192187 4.1139 8.08048e+23 0.00537352 8.19717 -0.294239 -1.26584 
0.0073125 0.00192187 4.02576 7.91465e+23 0.00526324 8.04047 -2.39772 1.57524 
0.0069375 0.00201563 3.91102 7.35876e+23 0.00489357 6.80347 -2.25742 1.22353 
0.0073125 0.00201563 3.67905 7.75297e+23 0.00515573 2.11532 5.6401 9.72757 
0.0084375 0.00192187 3.84282 8.36692e+23 0.005564 2.49517 -1.04164 3.74589 
0.0088125 0.00192187 3.90612 7.2664e+23 0.00483216 1.03727 6.15753 -2.08112 
0.0084375 0.00201563 3.79034 7.40256e+23 0.0049227 -3.81245 -1.73207 1.78864 
0.0088125 0.00201563 4.0738 6.87693e+23 0.00457316 18.8323 -5.17936 -4.25097 
0.0091875 0.00173438 3.94063 7.01623e+23 0.00466579 14.7144 -6.04813 -2.93696 
0.0095625 0.00173438 3.89797 6.94941e+23 0.00462136 13.4709 2.16452 3.50649 
0.0091875 0.00182813 4.03023 8.32053e+23 0.00553315 7.68567 1.71864 -5.96138 
0.0095625 0.00182813 4.1496 6.8783e+23 0.00457407 0.437594 5.20314 19.8938 
0.0099375 0.00173438 3.94483 6.79906e+23 0.00452138 8.77749 -1.0702 -4.26348 
0.0103125 0.00173438 4.09941 8.13549e+23 0.0054101 16.579 0.647598 -5.39591 
0.0099375 0.00182813 4.06313 7.27452e+23 0.00483756 5.07163 5.16058 4.20027 
0.0103125 0.00182813 3.98137 8.22544e+23 0.00546992 10.3491 -0.849015 0.313552 
0.0106875 0.00154688 3.73109 7.88541e+23 0.0052438 22.7208 0.983787 7.84052 
0.0110625 0.00154688 4.12792 7.15494e+23 0.00475803 9.94969 -4.32177 -2.70243 
0.0106875 0.00164063 3.9991 7.47014e+23 0.00496764 7.80392 7.02997 2.56277 
0.0110625 0.00164063 3.84527 7.24056e+23 0.00481497 15.0005 5.24547 -5.41348 
0.0114375 0.00154688 4.03271 7.21113e+23 0.0047954 11.6047 5.03689 -7.85181 
0.0118125 0.00154688 4.17102 6.72414e+23 0.00447155 24.4453 -12.4584 2.15739 
0.0114375 0.00164063 4.01911 6.67544e+23 0.00443917 14.3696 -0.421473 1.60496 
0.0118125 0.00164063 4.02316 6.56948e+23 0.00436871 8.35768 -4.10521 -0.863385 
0.0114375 0.00173438 3.80158 6.41484e+23 0.00426587 12.284 -2.09832 -0.12581 
0.0118125 0.00173438 3.96037 6.69883e+23 0.00445472 18.0419 -3.9643 -1.42524 
0.0114375 0.00182813 4.01538 6.64058e+23 0.00441598 8.2032 1.37345 3.39009 
0.0118125 0.00182813 4.20167 6.68812e+23 0.0044476 12.7013 1.1518 -1.08416 
0.0091875 0.00192187 3.80044 8.29154e+23 0.00551387 0.170927 0.479035 -2.07691 
0.0095625 0.00192187 3.85447 7.3267e+23 0.00487226 10.8447 -7.72791 3.62799 
0.0091875 0.00201563 3.87183 6.87693e+23 0.00457316 -4.91509 1.7477 -15.0664 
0.0095625 0.00201563 4.12923 6.48271e+23 0.004311 10.8598 -7.08027 -8.83749 
0.0151875 0.00154688 4.02324 5.84382e+23 0.00388614 19.8228 9.44278 2.64011 
0.0155625 0.00154688 3.55039 6.12477e+23 0.00407297 25.7354 1.32262 -10.7183 
0.0151875 0.00164063 3.85624 6.44586e+23 0.0042865 12.3746 -8.66238 0.223469 
0.0155625 0.00164063 3.89019 6.05735e+23 0.00402813 10.2413 -5.61674 -5.70456 
0.0151875 0.00173438 4.28416 6.19767e+23 0.00412145 13.8698 -9.98066 2.39307 
0.0155625 0.00173438 4.04928 5.94709e+23 0.00395482 0.147228 -7.36633 1.92272 
0.0151875 0.00182813 3.77946 6.51379e+23 0.00433167 5.14244 10.4108 7.19954 
0.0155625 0.00182813 4.11649 5.95908e+23 0.00396279 0.90297 1.2898 -4.09783 
0.0159375 0.00173438 3.78569 6.39813e+23 0.00425476 2.84731 2.6864 -4.84892 
0.0163125 0.00173438 4.09278 6.08073e+23 0.00404369 8.23926 0.869407 -0.96175 
0.0159375 0.00182813 3.90721 6.02248e+23 0.00400495 8.20918 7.80979 -1.98861 
0.0163125 0.00182813 4.20099 6.40285e+23 0.00425789 5.43393 -8.58859 1.89522 
0.0084375 0.00117188 3.78393 8.1836e+23 0.00544209 20.2858 -6.28588 1.94833 
0.0088125 0.00117188 3.94463 7.91164e+23 0.00526124 19.1389 -5.25038 -12.6686 
0.0084375 0.00126563 4.18073 7.50873e+23 0.0049933 13.0505 -4.05747 -4.45748 
0.0088125 0.00126563 3.97486 7.50873e+23 0.0049933 23.4848 2.28869 -4.02579 
0.0076875 0.00135937 3.85074 7.65161e+23 0.00508832 21.8963 0.694386 -5.29577 
0.0080625 0.00135937 3.77023 8.33365e+23 0.00554187 13.6664 -0.821508 -3.79004 
0.0076875 0.00145312 3.739 7.59661e+23 0.00505174 26.9729 -1.09902 -2.60139 
0.0080625 0.00145312 3.93677 7.49691e+23 0.00498545 20.9251 5.64801 1.61499 
0.0091875 0.00117188 3.78337 7.59022e+23 0.0050475 31.0678 -4.98036 -4.57414 
0.0095625 0.00117188 3.58415 7.96108e+23 0.00529412 25.7701 1.5948 -2.54533 
0.0091875 0.00126563 4.24605 7.53162e+23 0.00500853 21.0694 -0.713197 -1.95422 
0.0095625 0.00126563 3.74176 7.14245e+23 0.00474973 28.9778 2.51668 -5.2626 
0.0099375 0.00117188 3.824 7.0463e+23 0.00468579 22.3895 -4.17622 7.03042 
0.0103125 0.00117188 3.82691 7.21937e+23 0.00480088 28.3878 7.1404 4.8369 
0.0099375 0.00126563 4.19729 7.46294e+23 0.00496286 28.8239 5.25272 -1.38351 
0.0103125 0.00126563 4.14739 6.57014e+23 0.00436914 21.0526 2.09596 6.26472 
0.0114375 0.00117188 3.83073 7.44188e+23 0.00494885 27.9681 9.4819 -4.55883 
0.0118125 0.00117188 3.86587 6.4282e+23 0.00427476 17.1733 -1.70047 -0.0148263 
0.0114375 0.00126563 3.89716 6.66171e+23 0.00443003 22.9563 -2.07615 4.85413 
0.0118125 0.00126563 4.00083 6.9822e+23 0.00464316 26.2805 11.1328 11.9614 
0.0106875 0.00135937 3.76826 6.92694e+23 0.00460642 17.7811 7.11494 -7.69785 
0.0110625 0.00135937 4.12132 7.05483e+23 0.00469146 20.2173 5.163 6.5538 
0.0106875 0.00145312 4.01299 7.31746e+23 0.00486611 17.6472 -8.25326 -0.252873 
0.0110625 0.00145312 4.20685 7.47697e+23 0.00497219 18.6342 -0.439186 5.51645 
0.0114375 0.00135937 4.09179 7.18271e+23 0.0047765 21.9863 -3.63186 -0.105133 
0.0118125 0.00135937 3.88008 7.05483e+23 0.00469146 17.3335 0.0559338 0.530513 
0.0114375 0.00145312 3.94043 7.19783e+23 0.00478656 14.3309 -3.05735 -6.50955 
0.0118125 0.00145312 4.30534 6.75918e+23 0.00449486 8.63894 -0.0637406 -0.112944 
0.0054375 0.00173438 4.03745 7.81809e+23 0.00519903 12.7838 -6.88491 -3.29567 
0.0058125 0.00173438 3.95886 8.65335e+23 0.00575448 19.5207 -5.69513 -2.01431 
0.0054375 0.00182813 3.77864 9.11296e+23 0.00606012 11.117 -2.38515 -4.37987 
0.0058125 0.00182813 4.0658 8.71675e+23 0.00579664 1.88933 1.86015 0.925939 
0.0069375 0.00173438 3.98725 8.21901e+23 0.00546564 7.589 -4.37741 0.0137791 
0.0073125 0.00173438 4.03608 7.60092e+23 0.00505461 13.8702 -4.06889 -3.57809 
0.0069375 0.00182813 4.00017 7.33791e+23 0.00487971 6.07943 0.0842203 2.66849 
0.0073125 0.00182813 4.05394 7.84507e+23 0.00521697 5.83967 -2.08012 6.57694 
0.0106875 0.00173438 4.04941 7.81809e+23 0.00519903 8.27778 1.66638 -1.693 
0.0110625 0.00173438 4.27254 7.83479e+23 0.00521014 11.8944 -3.51597 1.50337 
0.0106875 0.00182813 3.91622 7.25867e+23 0.00482702 13.0057 -4.68142 -8.07875 
0.0110625 0.00182813 3.88479 6.91e+23 0.00459515 9.39693 3.62112 0.430774 
0.0121875 0.00154688 4.19476 6.7616e+23 0.00449646 21.705 -0.682585 -5.58235 
0.0125625 0.00154688 4.25829 7.54827e+23 0.0050196 23.7359 6.20432 -5.40922 
0.0121875 0.00164063 3.84798 6.6931e+23 0.00445091 19.0059 -8.02615 -3.19889 
0.0125625 0.00164063 3.9219 7.36418e+23 0.00489718 17.9168 2.60544 -5.51224 
0.0129375 0.00173438 3.71125 6.74895e+23 0.00448805 16.0375 -5.04638 5.82771 
0.0133125 0.00173438 3.97749 6.08073e+23 0.00404369 12.3793 -0.945988 0.407953 
0.0129375 0.00182813 4.12465 7.05264e+23 0.00469001 12.7305 4.6847 -6.47917 
0.0133125 0.00182813 4.05788 7.27452e+23 0.00483756 3.35674 -4.08173 -6.59867 
0.0136875 0.00154688 3.73933 6.85525e+23 0.00455874 18.1899 -0.212946 -3.63531 
0.0140625 0.00154688 4.04869 7.43589e+23 0.00494487 21.5562 4.58253 0.669904 
0.0136875 0.00164063 3.9888 6.79906e+23 0.00452138 15.887 5.52048 -2.39923 
0.0140625 0.00164063 4.03784 6.09267e+23 0.00405162 19.1565 4.73773 1.79552 
0.0166875 0.00173438 3.88891 6.18096e+23 0.00411034 17.6045 -2.93426 -1.00875 
0.0170625 0.00173438 4.34674 6.19767e+23 0.00412145 6.95698 3.63823 -2.36265 
0.0166875 0.00182813 3.9597 6.27606e+23 0.00417358 9.82355 2.34873 -2.913 
0.0170625 0.00182813 4.03337 6.07002e+23 0.00403657 6.10783 4.90753 2.91397 
0.0159375 0.00192187 4.13369 6.01513e+23 0.00400006 -2.8916 -11.2283 0.398419 
0.0163125 0.00192187 3.96497 6.4071e+23 0.00426072 -1.72226 -5.36627 -11.2237 
0.0159375 0.00201563 4.03393 5.69427e+23 0.00378669 5.34712 0.664565 -0.761162 
0.0163125 0.00201563 3.92032 6.08849e+23 0.00404885 17.6005 0.46074 12.1731 
0.0061875 0.000796875 3.5959 8.61699e+23 0.0057303 18.6058 8.22457 -7.48419 
0.0065625 0.000796875 3.89054 7.9989e+23 0.00531927 20.0616 -1.86687 9.09298 
0.0061875 0.000890625 3.8271 8.97866e+23 0.00597081 29.616 -5.12 -2.66587 
0.0065625 0.000890625 3.85349 8.42563e+23 0.00560304 30.2886 -2.56929 0.7725 
0.0054375 0.00192187 3.88564 8.20109e+23 0.00545372 5.21793 -0.203374 0.93049 
0.0058125 0.00192187 3.91227 8.17093e+23 0.00543367 14.717 3.83208 2.435 
0.0054375 0.00201563 3.7143 8.97943e+23 0.00597132 -1.4302 -3.34542 3.59429 
0.0058125 0.00201563 4.30431 7.75297e+23 0.00515573 6.24214 0.261747 5.45667 
0.0076875 0.00192187 3.85134 8.20109e+23 0.00545372 4.14857 -1.44191 0.550461 
0.0080625 0.00192187 4.10239 7.73374e+23 0.00514294 6.58902 4.2276 4.0027 
0.0076875 0.00201563 4.04105 7.97198e+23 0.00530137 4.83294 -7.54445 -0.902897 
0.0080625 0.00201563 4.11071 8.01579e+23 0.0053305 4.81755 1.98711 0.585257 
0.0129375 0.00154688 3.96353 6.66795e+23 0.00443419 20.7433 0.96172 -0.72287 
0.0133125 0.00154688 4.50231 6.93017e+23 0.00460856 11.9244 0.711123 3.3531 
0.0129375 0.00164063 4.04577 7.0463e+23 0.00468579 16.7084 -1.67144 -0.913547 
0.0133125 0.00164063 4.04609 6.32224e+23 0.00420429 14.0112 8.55553 0.953487 
0.0144375 0.00173438 3.95102 6.79906e+23 0.00452138 20.9188 8.00761 -1.84659 
0.0148125 0.00173438 3.9211 6.14755e+23 0.00408812 18.0265 6.04434 -6.67527 
0.0144375 0.00182813 3.8569 6.27606e+23 0.00417358 7.3242 3.52343 -2.2209 
0.0148125 0.00182813 4.03167 6.56133e+23 0.00436329 10.1037 0.932469 -2.48075 
0.0121875 0.00192187 3.75324 6.72368e+23 0.00447125 7.5502 -4.15295 -5.88807 
0.0125625 0.00192187 3.95419 6.96489e+23 0.00463165 13.1505 1.45918 7.77033 
0.0121875 0.00201563 4.12329 7.18355e+23 0.00477706 12.9269 -10.278 -0.108044 
0.0125625 0.00201563 4.21391 7.35876e+23 0.00489357 9.86418 -3.47937 -7.53369 
0.0151875 0.00192187 3.97736 6.00006e+23 0.00399004 0.220407 2.14116 2.73205 
0.0155625 0.00192187 3.83388 6.69353e+23 0.0044512 9.34662 -0.34566 2.74798 
0.0151875 0.00201563 4.00644 6.2199e+23 0.00413623 -1.60067 6.63448 0.15263 
0.0155625 0.00201563 3.67663 5.12485e+23 0.00340802 -4.1843 -5.17551 -8.03402 
0.0069375 0.00135937 3.71944 8.18445e+23 0.00544266 21.8288 8.15328 -2.03612 
0.0073125 0.00135937 4.07707 7.45979e+23 0.00496076 13.3309 -1.26505 5.75409 
0.0069375 0.00145312 3.60099 7.87575e+23 0.00523737 21.5613 6.92147 -4.39875 
0.0073125 0.00145312 3.87601 8.19476e+23 0.00544952 20.1564 -3.0172 3.4445 
0.0099375 0.000796875 3.8818 7.56259e+23 0.00502912 35.7008 7.94618 9.26058 
0.0103125 0.000796875 3.76926 7.96254e+23 0.00529509 30.1005 -6.70826 7.50238 
0.0099375 0.000890625 3.69508 7.70994e+23 0.00512711 23.5087 -2.36877 0.666033 
0.0103125 0.000890625 3.95846 7.05931e+23 0.00469444 15.9454 6.66468 -0.0233091 
0.0091875 0.00154688 3.79107 8.05398e+23 0.0053559 13.699 -5.01491 2.18536 
0.0095625 0.00154688 3.98095 8.24129e+23 0.00548046 16.33 -0.738437 -2.36124 
0.0091875 0.00164063 4.39692 7.85866e+23 0.00522601 8.12409 1.68269 -3.84167 
0.0095625 0.00164063 3.92614 7.5761e+23 0.0050381 14.4826 -2.89661 1.70943 
0.0114375 0.00192187 4.29509 7.34178e+23 0.00488228 3.45788 6.96597 0.087684 
0.0118125 0.00192187 3.76933 7.25133e+23 0.00482213 7.29946 -8.41433 -5.39054 
0.0114375 0.00201563 3.76364 8.54141e+23 0.00568004 7.99665 -9.46022 -4.46716 
0.0118125 0.00201563 4.01149 6.83313e+23 0.00454403 -13.0436 -11.8681 2.78712 
0.0121875 0.00173438 3.93806 6.98282e+23 0.00464358 10.4149 7.21863 2.23087 
0.0125625 0.00173438 4.09187 7.41716e+23 0.00493241 12.7844 -4.22306 -0.0213041 
0.0121875 0.00182813 3.86662 6.70397e+23 0.00445814 9.69202 -4.56405 -5.32194 
0.0125625 0.00182813 4.14669 6.68812e+23 0.0044476 10.8752 -6.61938 -6.07845 
0.0136875 0.00173438 4.0133 6.6153e+23 0.00439918 14.4631 -0.706359 -2.63642 
0.0140625 0.00173438 3.75159 6.11414e+23 0.00406591 14.4368 -1.56069 -6.01304 
0.0136875 0.00182813 3.90397 7.02094e+23 0.00466893 10.9056 -5.19675 -4.32167 
0.0140625 0.00182813 4.09971 6.56133e+23 0.00436329 6.37596 5.50617 -4.27428 
0.0129375 0.00192187 3.94558 6.91967e+23 0.00460158 11.1697 -5.65223 2.57294 
0.0133125 0.00192187 3.95792 7.17595e+23 0.00477201 3.97787 -4.16676 4.59757 
0.0129375 0.00201563 3.93112 7.00834e+23 0.00466054 8.13272 1.70862 -13.6767 
0.0133125 0.00201563 4.75895 6.2637e+23 0.00416536 4.21366 -3.2358 1.91127 
0.0166875 0.00192187 4.12167 6.04529e+23 0.00402011 7.33248 -3.77675 -0.891794 
0.0170625 0.00192187 4.0104 5.93976e+23 0.00394994 9.0922 -6.20756 -3.7309 
0.0166875 0.00201563 3.91245 5.82568e+23 0.00387408 8.77431 9.06675 -3.35831 
0.0170625 0.00201563 4.10065 5.82568e+23 0.00387408 -1.12392 -17.8951 1.09338 
0.0084375 0.00135937 4.02968 8.16314e+23 0.00542849 22.3057 4.19411 -2.19231 
0.0088125 0.00135937 4.05049 8.05657e+23 0.00535762 16.5768 -6.52855 4.6196 
0.0084375 0.00145312 3.76887 7.63648e+23 0.00507826 15.3568 12.2016 3.82331 
0.0088125 0.00145312 3.83284 6.75918e+23 0.00449486 23.5083 7.60667 -3.08722 
0.0099375 0.00154688 4.18267 7.79176e+23 0.00518152 14.2914 -6.96197 4.00562 
0.0103125 0.00154688 4.10431 7.28605e+23 0.00484522 12.1624 4.23562 1.26738 
0.0099375 0.00164063 4.10935 7.61142e+23 0.00506159 14.5879 -1.75099 -1.27092 
0.0103125 0.00164063 3.6876 8.10589e+23 0.00539042 8.02098 -5.34213 -3.72125 
0.0144375 0.00154688 3.724 6.1997e+23 0.0041228 15.808 -5.23941 6.15464 
0.0148125 0.00154688 4.0224 5.93747e+23 0.00394842 9.29903 2.13639 6.69875 
0.0144375 0.00164063 3.82513 6.07501e+23 0.00403988 6.57305 -6.88391 2.11861 
0.0148125 0.00164063 3.98906 6.53416e+23 0.00434522 17.408 2.42379 -3.18505 
0.0159375 0.00154688 4.01996 5.90001e+23 0.00392351 14.4702 -0.916501 4.50653 
0.0163125 0.00154688 3.75815 6.91144e+23 0.00459611 20.096 -5.21379 -1.4815 
0.0159375 0.00164063 3.97703 6.6048e+23 0.00439219 25.7586 0.264106 -3.59244 
0.0163125 0.00164063 3.917 6.05735e+23 0.00402813 18.7577 -3.26658 -10.0397 
0.0166875 0.00154688 3.90443 6.10604e+23 0.00406052 15.4603 0.313279 5.31834 
0.0170625 0.00154688 4.05316 5.91874e+23 0.00393596 23.4342 1.50448 7.15381 
0.0166875 0.00164063 3.87601 5.96905e+23 0.00396942 7.17344 -0.144799 -5.28873 
0.0170625 0.00164063 4.00408 5.35095e+23 0.00355838 23.9887 5.58235 3.9864 
0.0174375 0.00154688 3.7124 5.73144e+23 0.00381141 28.707 -0.583332 -8.80695 
0.0178125 0.00154688 4.00282 6.16223e+23 0.00409789 21.6415 -0.0631605 -11.9723 
0.0174375 0.00164063 3.88308 5.22733e+23 0.00347617 9.87756 6.10574 -5.14199 
0.0178125 0.00164063 3.96632 6.28692e+23 0.0041808 -2.74164 -7.58532 0.0868756 
0.0174375 0.00173438 4.14 5.52946e+23 0.00367709 13.971 -4.72379 5.19994 
0.0178125 0.00173438 3.8668 5.72992e+23 0.0038104 21.4531 -2.07705 -10.4446 
0.0174375 0.00182813 4.26161 5.91154e+23 0.00393117 3.11917 0.687036 3.24952 
0.0178125 0.00182813 4.10831 5.8006e+23 0.0038574 9.13554 -5.41241 7.78256 
0.0061875 0.000984375 3.77264 8.71222e+23 0.00579362 16.1668 0.839299 -4.2039 
0.0065625 0.000984375 3.79968 7.85866e+23 0.00522601 19.7164 -2.22718 -5.45444 
0.0061875 0.00107813 3.98215 8.49211e+23 0.00564725 19.6547 -5.31145 -2.24939 
0.0065625 0.00107813 3.91554 8.43836e+23 0.00561151 20.7136 5.374 1.33776 
0.0061875 0.00117188 3.97873 9.09838e+23 0.00605042 17.833 -4.64658 -6.08022 
0.0065625 0.00117188 3.85147 8.67807e+23 0.00577092 22.7499 2.17647 -0.946582 
0.0061875 0.00126563 3.99775 8.4931e+23 0.00564791 18.3356 2.79584 -3.29997 
0.0065625 0.00126563 3.98108 7.14245e+23 0.00474973 25.4602 -2.42063 -2.49656 
0.0061875 0.00135937 4.04489 8.75992e+23 0.00582535 19.2656 -7.62612 9.85637 
0.0065625 0.00135937 3.74668 8.46153e+23 0.00562692 13.6767 0.184056 2.72235 
0.0061875 0.00145312 3.87464 8.33433e+23 0.00554233 11.7611 -2.72378 -4.00329 
0.0065625 0.00145312 3.95321 7.51685e+23 0.00499871 18.7017 -0.0360291 0.349358 
0.0136875 0.00192187 4.11414 6.66338e+23 0.00443115 4.94006 -3.84739 3.14451 
0.0140625 0.00192187 4.05037 6.61816e+23 0.00440107 4.08977 3.72325 -1.95676 
0.0136875 0.00201563 4.04035 5.91329e+23 0.00393233 3.19349 -13.8092 9.21082 
0.0140625 0.00201563 3.69968 6.70172e+23 0.00445665 14.8537 -3.30797 -4.06726 
0.0106875 0.00117188 3.83115 7.71384e+23 0.00512971 22.0399 -0.965991 -9.22332 
0.0110625 0.00117188 4.23376 7.29354e+23 0.0048502 29.2842 -0.880716 3.68449 
0.0106875 0.00126563 4.00816 7.3027e+23 0.00485629 22.383 -1.1427 4.46878 
0.0110625 0.00126563 3.78146 7.18823e+23 0.00478018 18.8589 -1.27622 -1.48591 
0.0054375 0.000984375 3.74114 9.09485e+23 0.00604807 23.3226 0.509023 -10.0976 
0.0058125 0.000984375 3.8844 8.44732e+23 0.00561747 16.7874 -0.640543 -6.73934 
0.0054375 0.00107813 4.01765 8.25024e+23 0.00548641 19.3475 -8.39242 1.33407 
0.0058125 0.00107813 3.83924 8.62648e+23 0.00573661 18.1949 -4.98201 -4.15726 
0.0084375 0.000796875 3.6303 7.48988e+23 0.00498077 29.6625 -9.17024 5.87571 
0.0088125 0.000796875 3.81041 7.70803e+23 0.00512584 28.9789 2.2461 -4.39274 
0.0084375 0.000890625 3.64677 8.58829e+23 0.00571121 21.353 -6.61105 -9.47252 
0.0088125 0.000890625 3.75074 6.31109e+23 0.00419688 31.3006 -5.37786 2.92905 
0.0076875 0.00117188 4.0392 7.91164e+23 0.00526124 31.2244 5.96679 10.2404 
0.0080625 0.00117188 4.211 7.81274e+23 0.00519547 17.4037 2.47527 -0.865536 
0.0076875 0.00126563 3.66629 8.63046e+23 0.00573925 16.9068 -1.80711 6.1983 
0.0080625 0.00126563 3.8501 7.8979e+23 0.0052521 7.69428 -0.865479 -5.83187 
0.0144375 0.00192187 4.36405 6.64831e+23 0.00442112 8.58192 3.40997 3.83278 
0.0148125 0.00192187 4.02805 6.3468e+23 0.00422062 7.84097 -3.58863 6.11613 
0.0144375 0.00201563 3.92342 7.05214e+23 0.00468967 8.4297 0.620571 1.66145 
0.0148125 0.00201563 3.91583 6.48271e+23 0.004311 11.8491 10.8042 -4.8462 
0.0076875 0.000984375 3.7184 7.68206e+23 0.00510857 17.5222 -2.04226 -14.3667 
0.0080625 0.000984375 3.81359 7.00509e+23 0.00465839 26.7896 -5.74238 0.135694 
0.0076875 0.00107813 4.01006 8.11588e+23 0.00539706 11.8362 3.14813 0.416271 
0.0080625 0.00107813 3.99212 7.87401e+23 0.00523622 28.3893 3.04782 -1.68254 
0.0069375 0.000984375 3.67757 8.12355e+23 0.00540216 22.2164 4.86677 -2.23587 
0.0073125 0.000984375 3.752 8.77108e+23 0.00583277 26.435 8.83467 1.55497 
0.0069375 0.00107813 3.71945 8.22337e+23 0.00546854 20.9445 -5.58374 -8.02263 
0.0073125 0.00107813 3.91889 7.87401e+23 0.00523622 31.9987 -0.954527 0.179871 
0.0091875 0.000984375 4.25578 8.27072e+23 0.00550003 26.0676 -2.26065 2.60699 
0.0095625 0.000984375 3.88189 7.65262e+23 0.00508899 26.7429 3.61436 -0.907113 
0.0091875 0.00107813 3.89213 7.87401e+23 0.00523622 18.2012 -8.569 3.83009 
0.0095625 0.00107813 4.0015 7.6859e+23 0.00511112 19.1138 0.561919 5.57355 
0.009375 9.375e-05 3.26336 7.10811e+23 0.00472689 49.2064 -20.0508 -7.07908 
0.010125 9.375e-05 4.45452 8.11252e+23 0.00539482 16.1545 -2.72363 6.84306 
0.009375 0.00028125 4.00146 7.59744e+23 0.00505229 35.4289 0.479697 -1.14209 
0.010125 0.00028125 4.2419 7.0566e+23 0.00469264 29.4513 0.764003 1.9463 
0.009 0.01875 0 0 0 0 0 0 
0.009 0.02475 0 0 0 0 0 0 
0.003 0.01875 0 0 0 0 0 0 
0.003 0.02475 0 0 0 0 0 0 
0.003 0.02025 0 0 0 0 0 0 
0.003 0.02625 0 0 0 0 0 0 
0.009 0.02025 0 0 0 0 0 0 
0.009 0.02625 0 0 0 0 0 0 
0.015 0.02025 0 0 0 0 0 0 
0.015 0.02625 0 0 0 0 0 0 
0.003 0.01575 0 0 0 0 0 0 
0.003 0.02175 0 0 0 0 0 0 
0.003 0.02775 0 0 0 0 0 0 
0.009 0.01575 0 0 0 0 0 0 
0.009 0.02175 0 0 0 0 0 0 
0.009 0.02775 0 0 0 0 0 0 
0.003 0.01725 0 0 0 0 0 0 
0.003 0.02325 0 0 0 0 0 0 
0.003 0.02925 0 0 0 0 0 0 
0.009 0.01725 0 0 0 0 0 0 
0.009 0.02325 0 0 0 0 0 0 
0.009 0.02925 0 0 0 0 0 0 
0.015 0.01725 0 0 0 0 0 0 
0.015 0.02325 0 0 0 0 0 0 
0.015 0.02925 0 0 0 0 0 0 
0.015 0.00675 0 0 0 0 0 0 
0.015 0.01275 0 0 0 0 0 0 
0.027 0.01125 0 0 0 0 0 0 
0.021 0.00675 0 0 0 0 0 0 
0.021 0.01275 0 0 0 0 0 0 
0.027 0.01275 0 0 0 0 0 0 
0.021 0.00825 0 0 0 0 0 0 
0.021 0.01425 0 0 0 0 0 0 
0.027 0.00825 0 0 0 0 0 0 
0.027 0.01425 0 0 0 0 0 0 
0.015 0.00375 0 0 0 0 0 0 
0.015 0.00975 0 0 0 0 0 0 
0.021 0.00375 0 0 0 0 0 0 