ITEM: TIMESTEP
510000
ITEM: NUMBER OF SURFS
38
ITEM: BOX BOUNDS oo ao pp
0 0.12
0 0.03
-0.1 0.1
ITEM: SURFS id v1x v1y v2x v2y 
1 0.00635 0.00159 0.00318 0.00159 
5 0.0635 0.02159 0.01905 0.02159 
9 0 0.0254 0.06509 0.0254 
13 0.00953 0 0.00953 0.00953 
17 0.06709 0.0127 0.06709 0.02223 
21 0.07709 0.0045 0.07709 0.0127 
25 0.07869 0.00085 0.07916 0.00085 
29 0.07869 0.00206 0.07916 0.00206 
33 0.07869 0.00327 0.07916 0.00327 
37 0.07869 0.00448 0.07916 0.00448 
2 0.00635 0.0127 0.00635 0.00159 
6 0.0635 0.0035 0.0635 0.02159 
10 0 0 0 0.0254 
14 0.00953 0.00953 0.0127 0.00953 
18 0.06709 0.02223 0.07868 0.02223 
22 0.07709 0.0127 0.06709 0.0127 
26 0.07869 0.00036 0.07869 0.00085 
30 0.07869 0.00157 0.07869 0.00206 
34 0.07869 0.00278 0.07869 0.00327 
38 0.07869 0.00399 0.07869 0.00448 
3 0.01905 0.0127 0.00635 0.0127 
7 0.06509 0.0035 0.0635 0.0035 
11 0.00318 0 0 0 
15 0.0127 0.00953 0.0127 0 
19 0.07868 0.02223 0.07868 0.0045 
23 0.07916 0.00036 0.07869 0.00036 
27 0.07916 0.00157 0.07869 0.00157 
31 0.07916 0.00278 0.07869 0.00278 
35 0.07916 0.00399 0.07869 0.00399 
4 0.01905 0.02159 0.01905 0.0127 
8 0.06509 0.0254 0.06509 0.0035 
12 0.00318 0.00159 0.00318 0 
16 0.0127 0 0.00953 0 
20 0.07868 0.0045 0.07709 0.0045 
24 0.07916 0.00085 0.07916 0.00036 
28 0.07916 0.00206 0.07916 0.00157 
32 0.07916 0.00327 0.07916 0.00278 
36 0.07916 0.00448 0.07916 0.00399 
