ITEM: TIMESTEP
500000
ITEM: NUMBER OF CELLS
18376
ITEM: BOX BOUNDS oo ao pp
0 0.12
0 0.03
-0.1 0.1
ITEM: CELLS xc yc f_out[1] f_out[2] f_out[3] f_out[4] f_out[5] f_out[6] 
0.003 0.00375 0 0 0 0 0 0 
0.003 0.00525 0 0 0 0 0 0 
0.003 0.00675 0 0 0 0 0 0 
0.003 0.00825 0 0 0 0 0 0 
0.003 0.00975 0 0 0 0 0 0 
0.003 0.01125 0 0 0 0 0 0 
0.003 0.01275 0 0 0 0 0 0 
0.003 0.01425 0 0 0 0 0 0 
0.003 0.01575 0 0 0 0 0 0 
0.003 0.01725 0 0 0 0 0 0 
0.003 0.01875 0 0 0 0 0 0 
0.003 0.02025 0 0 0 0 0 0 
0.003 0.02175 0 0 0 0 0 0 
0.003 0.02325 0 0 0 0 0 0 
0.027 0.02325 0 0 0 0 0 0 
0.003 0.02475 0 0 0 0 0 0 
0.027 0.02475 0 0 0 0 0 0 
0.003 0.02625 0 0 0 0 0 0 
0.027 0.02625 0 0 0 0 0 0 
0.003 0.02775 0 0 0 0 0 0 
0.027 0.02775 0 0 0 0 0 0 
0.003 0.02925 0 0 0 0 0 0 
0.027 0.02925 0 0 0 0 0 0 
0.009 0.01425 0 0 0 0 0 0 
0.009 0.01575 0 0 0 0 0 0 
0.009 0.01725 0 0 0 0 0 0 
0.009 0.01875 0 0 0 0 0 0 
0.009 0.02025 0 0 0 0 0 0 
0.009 0.02175 0 0 0 0 0 0 
0.009 0.02325 0 0 0 0 0 0 
0.009 0.02475 0 0 0 0 0 0 
0.009 0.02625 0 0 0 0 0 0 
0.009 0.02775 0 0 0 0 0 0 
0.009 0.02925 0 0 0 0 0 0 
0.015 0.01425 0 0 0 0 0 0 
0.015 0.01575 0 0 0 0 0 0 
0.015 0.01725 0 0 0 0 0 0 
0.015 0.01875 0 0 0 0 0 0 
0.015 0.02025 0 0 0 0 0 0 
0.015 0.02175 0 0 0 0 0 0 
0.015 0.02325 0 0 0 0 0 0 
0.015 0.02475 0 0 0 0 0 0 
0.015 0.02625 0 0 0 0 0 0 
0.015 0.02775 0 0 0 0 0 0 
0.015 0.02925 0 0 0 0 0 0 
0.021 0.02325 0 0 0 0 0 0 
0.021 0.02475 0 0 0 0 0 0 
0.021 0.02625 0 0 0 0 0 0 
0.021 0.02775 0 0 0 0 0 0 
0.021 0.02925 0 0 0 0 0 0 
0.0015 0.000375 0 0 0 0 0 0 
0.0015 0.001125 0 0 0 0 0 0 
0.0255 0.022125 0 0 0 0 0 0 
0.0285 0.022125 0 0 0 0 0 0 
0.0105 0.000375 1.76059 1.84713e+21 1.22834e-05 -0.577903 5.22215 6.75342 
0.0105 0.001125 1.91994 1.79731e+21 1.19521e-05 2.08545 1.99706 3.15343 
0.0105 0.001875 2.05565 1.62932e+21 1.0835e-05 -2.54442 7.5454 0.508431 
0.0105 0.002625 2.04927 1.51919e+21 1.01026e-05 0.851523 8.35819 1.60201 
0.0075 0.013125 0 0 0 0 0 0 
0.0105 0.013125 0 0 0 0 0 0 
0.0135 0.013125 0 0 0 0 0 0 
0.0165 0.013125 0 0 0 0 0 0 
0.0195 0.022125 0 0 0 0 0 0 
0.0225 0.022125 0 0 0 0 0 0 
0.00525 0.0009375 1.94553 3.57941e+21 2.38031e-05 28.3727 0.94043 0.525804 
0.00675 0.0016875 1.94269 1.81212e+21 1.20506e-05 14.011 14.9162 1.18514 
0.00825 0.0016875 2.09782 1.61298e+21 1.07263e-05 7.12187 7.99061 0.172065 
0.00675 0.0020625 1.89307 1.51559e+21 1.00786e-05 7.4932 13.3906 -1.66013 
0.00675 0.0024375 1.96304 1.43685e+21 9.55508e-06 3.45772 8.32752 3.45273 
0.01125 0.0091875 0 0 0 0 0 0 
0.00675 0.0009375 1.93164 2.21525e+21 1.47314e-05 32.5978 11.6869 1.8377 
0.00825 0.0009375 2.00312 1.76254e+21 1.17209e-05 13.2669 8.39091 -1.62416 
0.00825 0.0013125 1.97469 1.64915e+21 1.09668e-05 11.6807 8.83151 0.132462 
0.026625 0.0117188 1.96122 1.07105e+21 7.12245e-06 2.64172 -1.66365 -0.618763 
0.025875 0.0119063 2.04822 1.0884e+21 7.23785e-06 -0.590506 1.30642 -1.82749 
0.026625 0.0119063 2.01611 1.11787e+21 7.43381e-06 -0.294191 1.01587 0.725581 
0.007875 0.00534375 2.06102 1.35759e+21 9.02799e-06 -1.62188 10.0591 2.2835 
0.008625 0.00534375 1.92356 1.18604e+21 7.88717e-06 0.230218 6.04891 -1.75469 
0.007875 0.00553125 1.91655 1.25428e+21 8.34097e-06 -0.418051 8.04822 -1.46722 
0.008625 0.00553125 1.9996 1.21336e+21 8.06883e-06 -2.35792 4.37048 -3.57873 
0.006375 0.00984375 2.08309 1.17704e+21 7.82731e-06 -0.755616 1.08957 0.420727 
0.006375 0.0100312 1.98685 1.14658e+21 7.62473e-06 -3.58693 -0.132121 -0.955381 
0.007875 0.00984375 2.05216 1.19917e+21 7.97449e-06 1.95213 3.97344 2.74375 
0.008625 0.00984375 2.04291 1.20262e+21 7.99743e-06 4.54705 0.561833 -0.988293 
0.007875 0.0100312 1.99883 1.24896e+21 8.30562e-06 -0.853458 4.39106 -1.03729 
0.006375 0.0113437 2.09545 1.27768e+21 8.49659e-06 -4.26467 0.74855 -1.09072 
0.007125 0.0113437 1.99692 1.20822e+21 8.03465e-06 -1.41149 -0.664208 3.9501 
0.006375 0.0115312 2.07338 1.21274e+21 8.06472e-06 -4.70994 2.98149 -1.29591 
0.009375 0.0117188 1.9893 1.13092e+21 7.52064e-06 3.56176 -0.860935 -3.704 
0.010125 0.0119063 1.96868 1.10836e+21 7.3706e-06 3.10855 -0.958183 0.578571 
0.007875 0.0120938 2.04047 1.22781e+21 8.16492e-06 0.547003 1.54254 1.37039 
0.007875 0.0126563 1.9838 1.16685e+21 7.75952e-06 -3.63619 -0.393859 3.80687 
0.008625 0.0126563 2.0513 1.14119e+21 7.58889e-06 2.13123 1.92885 3.73633 
0.009375 0.0126563 2.00988 1.22427e+21 8.1414e-06 0.811066 1.88512 -1.40226 
0.010125 0.0126563 2.11853 1.26703e+21 8.42578e-06 0.484118 -1.02451 -0.997282 
0.012375 0.0105937 1.96202 1.14846e+21 7.63727e-06 1.41815 -2.31519 2.79391 
0.013125 0.0105937 2.0647 1.12496e+21 7.48097e-06 3.44373 0.0434782 -0.578866 
0.013125 0.0107812 2.00282 1.08335e+21 7.20427e-06 3.80492 -0.400396 -1.80135 
0.013875 0.0113437 2.00498 1.12541e+21 7.48396e-06 2.55379 -1.40878 -2.32904 
0.014625 0.0115312 1.95627 1.08944e+21 7.24479e-06 -2.98645 0.0275422 -0.180723 
0.019125 0.0105937 1.98453 1.11748e+21 7.43124e-06 1.42988 -1.42916 -1.39138 
0.018375 0.0107812 1.9237 1.12009e+21 7.4486e-06 2.0213 -2.00693 -4.47666 
0.019125 0.0107812 1.96849 1.05291e+21 7.00182e-06 -1.34377 3.04526 -0.372368 
0.022875 0.0109687 2.0283 1.06896e+21 7.10856e-06 0.230865 -4.51192 -1.03279 
0.023625 0.0109687 2.08816 1.08959e+21 7.24579e-06 -0.708816 -0.180703 -0.00536514 
0.023625 0.0111562 1.972 1.05809e+21 7.03632e-06 -0.210978 -0.217144 -0.212909 
0.021375 0.0216562 2.02493 1.0622e+21 7.06364e-06 3.54799 -0.734949 2.82776 
0.022125 0.0216562 2.00387 1.03717e+21 6.89715e-06 2.16946 2.99917 3.7375 
0.00375 0.0001875 1.90304 5.24729e+21 3.48945e-05 20.7639 1.39605 -0.154682 
0.00525 0.0001875 1.94954 3.22931e+21 2.14749e-05 27.5563 -5.21796 3.01961 
0.00375 0.0005625 2.07319 4.40132e+21 2.92688e-05 20.9434 0.977032 2.28414 
0.00525 0.0005625 1.88517 3.33997e+21 2.22108e-05 29.1343 1.21215 1.53083 
0.01275 0.0054375 2.00049 1.08591e+21 7.22132e-06 -0.374464 -1.68324 2.0979 
0.01275 0.0058125 1.98588 1.02772e+21 6.83433e-06 1.07694 -4.87058 1.49706 
0.02475 0.0024375 2.048 1.12596e+21 7.48766e-06 3.05061 -0.389007 -0.132057 
0.02625 0.0024375 2.07817 1.06676e+21 7.09398e-06 5.02086 -1.40179 2.56449 
0.02475 0.0028125 1.98202 1.04425e+21 6.94423e-06 -1.42059 3.37587 -0.724417 
0.003375 0.00121875 1.88243 4.92419e+21 3.27458e-05 17.9743 -5.2799 -1.77384 
0.004125 0.00121875 1.92142 4.25313e+21 2.82833e-05 17.7549 -1.16217 -0.993426 
0.003375 0.00140625 1.96782 4.95595e+21 3.29571e-05 14.8453 2.73793 3.12079 
0.004125 0.00140625 1.87754 4.10455e+21 2.72952e-05 12.2231 2.60617 4.18195 
0.025125 0.0102187 2.04219 1.13634e+21 7.55664e-06 -0.195156 1.25204 0.875636 
0.024375 0.0104062 1.92725 1.02124e+21 6.79126e-06 1.73402 4.99908 -1.77129 
0.025125 0.0104062 1.96692 1.04843e+21 6.97207e-06 -0.218657 4.79584 3.53813 
0.026625 0.0105937 1.96474 1.10145e+21 7.32467e-06 -1.0473 1.30784 -0.729594 
0.025875 0.0107812 1.91243 1.08335e+21 7.20427e-06 2.81043 4.08536 0.905713 
0.025125 0.0120938 2.09257 1.05562e+21 7.01984e-06 -0.0882805 -1.01084 -1.10036 
0.025125 0.0122813 2.0553 1.03673e+21 6.89428e-06 0.863676 -4.39294 1.31445 
0.027375 0.0126563 1.96548 1.05609e+21 7.02302e-06 0.176811 3.51436 2.03086 
0.028125 0.0126563 2.11262 1.12316e+21 7.46902e-06 0.888924 0.815135 2.56838 
0.025875 0.0137813 1.97005 1.03969e+21 6.91392e-06 -0.877276 2.78922 2.97882 
0.027375 0.0216562 1.95644 1.08008e+21 7.18255e-06 -7.73098 -1.8236 0.268688 
0.028125 0.0216562 1.96348 1.13373e+21 7.5393e-06 6.85127 2.04232 1.03138 
0.007875 0.00721875 2.04703 1.23387e+21 8.20525e-06 2.5074 3.12869 1.79621 
0.008625 0.00721875 2.05637 1.2668e+21 8.4242e-06 0.73723 5.7761 0.758958 
0.007875 0.00740625 1.99937 1.2821e+21 8.52595e-06 -1.41857 5.3695 -0.645609 
0.007875 0.00871875 2.02016 1.25395e+21 8.33877e-06 1.79962 5.37186 -0.738246 
0.008625 0.00871875 2.05203 1.27212e+21 8.45962e-06 2.31386 3.75703 -4.66361 
0.008625 0.00890625 2.02275 1.26313e+21 8.39983e-06 -0.685379 -1.20977 0.851344 
0.007875 0.00909375 1.92805 1.16117e+21 7.72179e-06 0.204326 0.792282 -0.706408 
0.008625 0.00909375 1.97856 1.26322e+21 8.40044e-06 -2.31254 2.74316 1.99103 
0.007875 0.00928125 2.07727 1.25478e+21 8.34427e-06 -1.01925 5.02604 0.76416 
0.008625 0.00928125 1.89093 1.23892e+21 8.23885e-06 -0.87385 -0.77895 1.01354 
0.009375 0.00946875 2.03683 1.25846e+21 8.36878e-06 -0.266853 0.352748 1.14042 
0.010125 0.00946875 2.04738 1.21064e+21 8.05077e-06 -0.997306 12.1092 0.827744 
0.009375 0.00965625 2.0157 1.2248e+21 8.14492e-06 1.43789 5.41078 1.44536 
0.010125 0.00965625 1.91803 1.12869e+21 7.5058e-06 4.29006 -0.122184 1.83539 
0.006375 0.0102187 2.01944 1.15669e+21 7.69198e-06 -4.97001 0.378703 -4.60366 
0.007125 0.0102187 1.99201 1.20279e+21 7.99855e-06 1.00563 1.9291 2.51368 
0.006375 0.0104062 1.93976 1.21538e+21 8.08225e-06 -0.99254 1.26269 -1.85301 
0.007125 0.0104062 2.02944 1.21701e+21 8.0931e-06 -0.908475 0.116463 5.98989 
0.008625 0.0102187 1.95176 1.26149e+21 8.3889e-06 0.322448 1.81807 0.51251 
0.007875 0.0104062 2.03702 1.2442e+21 8.27391e-06 -0.149722 -1.39768 0.394632 
0.010125 0.00984375 1.92753 1.12674e+21 7.49281e-06 -0.757881 -4.12101 -0.205113 
0.010125 0.0100312 1.93354 1.20609e+21 8.02051e-06 2.27944 4.88426 1.23302 
0.009375 0.0102187 1.93631 1.16513e+21 7.74814e-06 4.33322 1.63356 1.11752 
0.010875 0.0104062 2.0073 1.17024e+21 7.78211e-06 3.58699 -3.55911 4.20366 
0.008625 0.0105937 2.0257 1.1709e+21 7.78646e-06 1.22416 3.5043 0.473464 
0.007875 0.0107812 1.8586 1.15893e+21 7.70689e-06 -1.30079 4.5425 1.00623 
0.008625 0.0107812 1.9898 1.22507e+21 8.14669e-06 0.0960907 3.1278 0.373383 
0.008625 0.0109687 1.96829 1.20825e+21 8.03487e-06 -3.25858 0.792922 -1.27803 
0.008625 0.0111562 1.97581 1.19403e+21 7.94031e-06 -0.660491 2.11439 -2.35403 
0.007875 0.0117188 2.00241 1.22654e+21 8.15646e-06 -1.76693 0.646338 -0.806257 
0.009375 0.0113437 2.01553 1.22019e+21 8.11426e-06 4.14068 0.758893 -0.986499 
0.009375 0.0115312 2.04234 1.16011e+21 7.71472e-06 2.82127 2.30516 0.633461 
0.010875 0.0117188 1.95852 1.18597e+21 7.88672e-06 3.34326 -1.43682 -0.234505 
0.010875 0.0126563 2.01254 1.15707e+21 7.69452e-06 1.5001 2.66074 1.7749 
0.012375 0.0117188 1.98211 1.18211e+21 7.86103e-06 4.51112 -1.09732 0.641232 
0.013875 0.0120938 2.00926 1.1623e+21 7.72929e-06 1.91613 -3.25296 1.33819 
0.012375 0.0126563 2.03202 1.11919e+21 7.44264e-06 4.10999 -5.37646 -0.353012 
0.013125 0.0126563 1.96528 1.06299e+21 7.06888e-06 1.12461 0.856224 -0.906966 
0.020625 0.0105937 2.01167 1.06834e+21 7.10443e-06 -0.00913226 0.553518 3.502 
0.020625 0.0107812 1.99674 1.05186e+21 6.99484e-06 0.929074 5.36977 0.142583 
0.022875 0.0117188 2.00488 1.07008e+21 7.11603e-06 0.249772 0.329909 -1.74399 
0.022875 0.0126563 1.97014 1.1017e+21 7.3263e-06 -0.534925 1.10609 3.09847 
0.028125 0.0119063 2.01715 1.05798e+21 7.03557e-06 1.48754 3.06291 3.223 
0.0135 0.000375 2.0725 1.11209e+21 7.39537e-06 0.99535 -2.93185 -0.147453 
0.0165 0.000375 2.08125 1.15629e+21 7.68933e-06 -0.261935 2.32235 0.00872696 
0.0195 0.000375 2.01421 1.07707e+21 7.16249e-06 1.27528 -0.0714682 1.08578 
0.0225 0.000375 2.03598 1.11479e+21 7.41337e-06 1.39617 3.28279 2.10119 
0.01275 0.0046875 1.95306 1.06047e+21 7.05211e-06 0.873694 -4.45016 1.52149 
0.01275 0.0050625 1.90674 1.09614e+21 7.28932e-06 -0.969282 -0.872478 -2.16987 
0.02175 0.0024375 1.96009 1.06328e+21 7.07083e-06 -0.496835 2.51727 -0.466152 
0.02325 0.0024375 1.98111 1.09578e+21 7.28696e-06 2.16533 2.02895 -3.77394 
0.02325 0.0028125 2.05167 1.09656e+21 7.29211e-06 -1.41062 0.439975 -3.85094 
0.02475 0.0031875 1.96761 1.06164e+21 7.05993e-06 1.17483 1.85604 -2.72486 
0.01275 0.0031875 2.05855 1.08683e+21 7.22742e-06 -6.32516 0.606004 -1.74795 
0.01275 0.0035625 1.92588 1.02604e+21 6.82315e-06 0.825434 0.902048 1.87982 
0.01275 0.0039375 2.07519 1.07653e+21 7.15891e-06 1.36561 -3.61054 1.4508 
0.004875 0.00121875 2.03508 3.67738e+21 2.44546e-05 15.5745 2.50865 9.43259 
0.005625 0.00121875 1.90486 3.1202e+21 2.07493e-05 27.5932 -1.84546 1.47521 
0.004875 0.00140625 2.01628 3.678e+21 2.44587e-05 14.986 2.74799 -0.159557 
0.005625 0.00140625 2.03646 3.26754e+21 2.17292e-05 24.5144 5.22419 -0.808098 
0.024375 0.00684375 2.07478 1.07327e+21 7.13723e-06 3.81774 -1.55219 -1.08115 
0.025125 0.00684375 2.06895 1.02531e+21 6.81831e-06 5.01766 2.5186 -0.278359 
0.024375 0.00703125 2.08276 1.06235e+21 7.06465e-06 0.201877 0.470114 -1.01895 
0.025125 0.00703125 2.01763 1.00924e+21 6.71142e-06 -3.93597 -1.33788 0.522986 
0.025875 0.00834375 2.1139 1.10142e+21 7.32443e-06 0.601974 0.704238 4.83141 
0.026625 0.00834375 1.99624 1.13126e+21 7.52288e-06 -0.172829 -4.41621 -0.555502 
0.026625 0.00853125 1.97827 1.05731e+21 7.03113e-06 0.447395 -4.06229 -0.821018 
0.028875 0.00946875 1.92301 1.0853e+21 7.21726e-06 3.03017 4.18308 2.06719 
0.029625 0.00946875 2.02191 1.06976e+21 7.11393e-06 2.53479 1.52883 -0.654226 
0.028875 0.00965625 2.06826 1.08181e+21 7.19403e-06 3.37021 0.035285 -2.54903 
0.029625 0.00965625 1.96464 1.12166e+21 7.45904e-06 0.575697 -0.700437 2.37374 
0.029625 0.0111562 2.05651 1.03476e+21 6.88115e-06 1.67093 -5.02577 -3.39757 
0.026625 0.0113437 1.96836 1.06555e+21 7.08588e-06 0.206838 -0.794462 -3.48232 
0.028125 0.0120938 2.03963 1.02941e+21 6.84559e-06 -1.29901 0.410072 -2.62081 
0.029625 0.0124688 2.01604 1.15094e+21 7.65377e-06 1.93803 -1.50397 -1.0961 
0.028875 0.0126563 1.9669 1.0856e+21 7.21926e-06 3.31344 -2.34288 1.75245 
0.025875 0.0128438 2.01652 1.0768e+21 7.16075e-06 2.4907 2.44815 -0.461754 
0.026625 0.0130313 1.96685 1.07694e+21 7.16168e-06 -0.192302 -1.50722 -0.2879 
0.027375 0.0128438 2.01753 1.08826e+21 7.23693e-06 -1.81798 0.0569558 -1.07048 
0.028125 0.0128438 2.04355 1.04773e+21 6.96738e-06 -0.196746 0.00737379 -0.25351 
0.026625 0.0139688 1.99841 1.07191e+21 7.12823e-06 4.2024 -0.726101 -1.95269 
0.024375 0.0216562 2.04257 1.06578e+21 7.08742e-06 -0.984955 0.429705 1.64886 
0.025125 0.0216562 1.99029 1.15161e+21 7.65822e-06 -2.18912 -3.58396 -5.2381 
0.025875 0.0216562 1.97344 1.14804e+21 7.63443e-06 -1.58407 0.848959 2.21695 
0.026625 0.0216562 1.90788 1.10512e+21 7.34904e-06 -5.36845 0.436989 2.16177 
0.007875 0.00421875 1.96487 1.51305e+21 1.00618e-05 -1.64773 6.11984 -4.5514 
0.008625 0.00421875 1.91757 1.34672e+21 8.95569e-06 -4.14765 3.06656 -4.20872 
0.007875 0.00440625 2.03468 1.30482e+21 8.67708e-06 -0.956308 3.68283 5.53982 
0.008625 0.00440625 1.90486 1.4127e+21 9.39448e-06 -0.153932 6.22421 1.25953 
0.007875 0.00571875 1.93888 1.28638e+21 8.55444e-06 0.718507 4.79542 -3.71738 
0.008625 0.00571875 2.02466 1.31211e+21 8.72553e-06 -0.13629 8.02582 2.26147 
0.007875 0.00590625 1.92446 1.23405e+21 8.20641e-06 -1.17393 9.66757 0.412925 
0.008625 0.00590625 1.98901 1.3701e+21 9.11116e-06 -2.34933 8.46593 3.72947 
0.007875 0.00609375 1.88688 1.33166e+21 8.85551e-06 1.02977 4.44088 2.5397 
0.008625 0.00609375 1.97367 1.29451e+21 8.6085e-06 2.23961 5.16394 -1.11083 
0.007875 0.00628125 1.98401 1.25407e+21 8.33955e-06 1.94323 6.09259 -0.270775 
0.008625 0.00628125 1.98482 1.27028e+21 8.44738e-06 -2.24595 0.417565 -0.849321 
0.006375 0.00759375 1.97437 1.25752e+21 8.36251e-06 -1.42119 1.95874 0.872536 
0.007125 0.00759375 2.03825 1.31751e+21 8.76143e-06 -1.49046 0.0744572 -0.137803 
0.006375 0.00778125 1.83358 1.37721e+21 9.15846e-06 3.93464 6.38431 -0.190435 
0.007125 0.00778125 2.05913 1.35412e+21 9.00491e-06 1.42962 2.31943 2.78266 
0.007875 0.00759375 2.01288 1.26236e+21 8.39472e-06 0.720501 4.86869 -3.99829 
0.008625 0.00759375 2.05437 1.34136e+21 8.92001e-06 -0.0195612 1.02992 -0.810965 
0.007875 0.00778125 2.00803 1.2334e+21 8.20211e-06 -0.432862 4.71898 -2.57223 
0.008625 0.00796875 1.97292 1.15751e+21 7.69745e-06 0.366551 3.42262 1.67353 
0.008625 0.00815625 2.00913 1.33627e+21 8.88618e-06 -0.569297 3.04673 3.75058 
0.007875 0.00834375 1.96304 1.24384e+21 8.27156e-06 0.658473 3.91923 0.453038 
0.007875 0.00853125 2.08246 1.27753e+21 8.49558e-06 -0.339451 4.77686 -0.0848032 
0.008625 0.00853125 1.92851 1.24171e+21 8.25738e-06 -3.57885 1.74623 0.777667 
0.006375 0.0109687 2.02549 1.18207e+21 7.86076e-06 -5.23305 0.49513 -0.2192 
0.007125 0.0109687 2.0236 1.23198e+21 8.19269e-06 -1.41652 -0.620841 -1.07558 
0.006375 0.0111562 2.17215 1.16601e+21 7.75395e-06 3.03524 0.592797 -2.95828 
0.007125 0.0111562 1.92752 1.19302e+21 7.93356e-06 1.10826 2.11863 0.402556 
0.009375 0.0105937 2.06002 1.21683e+21 8.09195e-06 2.81511 0.288021 -0.023176 
0.009375 0.0107812 1.97063 1.12849e+21 7.50445e-06 0.822599 2.67292 1.69236 
0.010875 0.0107812 1.98441 1.13899e+21 7.57425e-06 5.41224 -0.233174 0.635614 
0.010875 0.0109687 1.97664 1.1546e+21 7.67807e-06 3.74288 0.528447 2.53414 
0.011625 0.0111562 2.09818 1.15142e+21 7.65697e-06 0.870112 0.20728 -0.15625 
0.007875 0.0113437 2.01875 1.26409e+21 8.40619e-06 2.38126 -1.85843 -0.710575 
0.006375 0.0117188 1.86145 1.15712e+21 7.69485e-06 -4.64782 4.60053 -1.66622 
0.006375 0.0119063 1.95348 1.1995e+21 7.97665e-06 0.0662489 0.61413 4.00176 
0.006375 0.0120938 2.0721 1.22652e+21 8.15637e-06 -0.621947 0.0421508 2.93947 
0.006375 0.0122813 2.03825 1.15941e+21 7.71011e-06 -0.00469833 3.22986 -2.60585 
0.012375 0.0109687 2.0011 1.10817e+21 7.3693e-06 4.77333 -1.1402 -2.83509 
0.013125 0.0109687 1.99612 1.11539e+21 7.41733e-06 0.527199 -1.34869 -2.3821 
0.015375 0.0107812 2.00718 1.10224e+21 7.32992e-06 2.41249 1.06778 -1.61027 
0.017625 0.0105937 2.15172 1.13885e+21 7.57333e-06 2.0639 1.69102 0.871852 
0.017625 0.0107812 2.04279 1.07915e+21 7.17634e-06 0.234799 -3.28314 0.868242 
0.016125 0.0115312 2.02284 1.06491e+21 7.08162e-06 0.553748 -0.185725 -0.116412 
0.016875 0.0113437 1.95564 1.05956e+21 7.04607e-06 1.10847 -0.0162589 1.59626 
0.017625 0.0113437 1.9683 1.07453e+21 7.14559e-06 3.76828 1.29935 0.577099 
0.016875 0.0115312 1.96038 1.1287e+21 7.50586e-06 4.42169 -1.81832 0.634376 
0.018375 0.00796875 1.95603 1.12484e+21 7.48022e-06 1.56983 -4.57453 0.688048 
0.019125 0.00796875 2.02548 1.1149e+21 7.4141e-06 5.75772 1.09187 1.08617 
0.018375 0.00815625 2.01142 1.08372e+21 7.20675e-06 2.05343 -0.464029 -1.95195 
0.019125 0.00815625 1.98471 1.05181e+21 6.99452e-06 0.249176 3.07623 0.983948 
0.018375 0.0102187 1.99293 1.04773e+21 6.96743e-06 -1.2363 4.88208 -1.01036 
0.019125 0.0102187 1.99668 1.06878e+21 7.10737e-06 1.65017 -1.47992 -2.55097 
0.018375 0.0104062 2.02688 1.08867e+21 7.23967e-06 2.69242 0.59527 -0.168616 
0.019125 0.0104062 2.01356 1.0865e+21 7.22521e-06 -0.335335 1.14022 -1.98647 
0.020625 0.0113437 1.95464 1.12441e+21 7.47733e-06 0.947423 -4.40405 -1.48236 
0.019875 0.0115312 1.98874 1.06392e+21 7.07509e-06 5.45436 1.73736 0.291577 
0.018375 0.0119063 1.95497 1.04657e+21 6.95972e-06 1.05168 3.13996 0.303592 
0.019125 0.0119063 1.99923 1.11216e+21 7.39588e-06 -0.541297 1.65364 -2.50174 
0.022125 0.0117188 1.93025 1.0131e+21 6.73711e-06 1.00469 2.96993 -2.94689 
0.020625 0.0120938 2.0339 1.07901e+21 7.17542e-06 1.99964 -0.79104 -4.97691 
0.019875 0.0122813 2.04676 1.09848e+21 7.30488e-06 0.347253 -2.74648 -3.70634 
0.020625 0.0124688 1.96492 1.00027e+21 6.65178e-06 2.42221 1.78894 -2.46396 
0.019875 0.0126563 1.93762 1.04447e+21 6.94572e-06 -0.32391 1.38659 -0.301858 
0.021375 0.0120938 1.91242 1.09118e+21 7.25633e-06 -0.996304 -0.637365 2.61201 
0.022125 0.0124688 1.94434 1.03567e+21 6.88719e-06 -0.23878 2.10552 -0.46881 
0.021375 0.0126563 1.96447 1.07398e+21 7.14196e-06 -0.708191 -0.0699634 -1.79165 
0.019875 0.0128438 2.04625 1.08562e+21 7.21935e-06 2.42163 2.47267 -1.581 
0.025875 0.00946875 1.9054 9.96853e+20 6.62907e-06 0.602004 -0.699478 -0.226207 
0.026625 0.00946875 1.90516 1.08411e+21 7.20931e-06 1.65534 -2.33809 2.60075 
0.025875 0.00965625 1.95918 1.04899e+21 6.9758e-06 -1.1178 -0.822574 -3.09831 
0.026625 0.00965625 1.96234 1.0947e+21 7.27977e-06 -0.492111 3.01179 -3.21088 
0.028875 0.0115312 1.99931 1.03546e+21 6.88581e-06 0.855383 -0.790684 1.14185 
0.029625 0.0115312 2.0297 1.04626e+21 6.95761e-06 -0.339272 0.66948 -3.79997 
0.028875 0.0117188 2.02578 1.07008e+21 7.11603e-06 0.905658 -0.705546 2.23257 
0.029625 0.0117188 2.01255 1.11257e+21 7.39862e-06 1.99512 3.55299 3.37972 
0.00975 0.0069375 1.93761 1.30549e+21 8.68149e-06 -0.758283 3.72203 0.634874 
0.01125 0.0069375 0 0 0 0 0 0 
0.01125 0.0073125 0 0 0 0 0 0 
0.02775 0.0016875 1.95157 1.07811e+21 7.16946e-06 4.209 -4.28349 2.80311 
0.02925 0.0016875 1.97214 1.12003e+21 7.44821e-06 1.41549 -0.473152 -2.81137 
0.02775 0.0020625 1.97632 1.09061e+21 7.25258e-06 1.38354 -1.10427 1.69032 
0.02925 0.0020625 1.96865 1.05495e+21 7.01539e-06 1.30689 4.84815 0.958427 
0.003375 0.00084375 2.02734 5.20658e+21 3.46237e-05 18.6662 -5.50838 -2.9052 
0.004125 0.00084375 2.07863 4.18503e+21 2.78304e-05 17.8032 7.65059 1.39993 
0.003375 0.00103125 1.82489 4.36101e+21 2.90007e-05 22.9105 -6.28609 10.1606 
0.004125 0.00103125 1.94151 4.40086e+21 2.92657e-05 21.2417 -1.83226 3.15847 
0.024375 0.00796875 1.99802 1.04389e+21 6.94187e-06 0.419958 -0.108771 1.10832 
0.025125 0.00796875 1.87934 1.03537e+21 6.8852e-06 -0.602457 -0.289148 1.98025 
0.024375 0.00815625 1.94033 1.0754e+21 7.15139e-06 1.22415 -0.921535 -1.62397 
0.025125 0.00815625 1.93022 1.12535e+21 7.48358e-06 -1.50241 0.626667 0.134517 
0.028875 0.00834375 2.02386 1.00511e+21 6.684e-06 3.16195 4.01788 -1.549 
0.029625 0.00834375 2.02101 1.15703e+21 7.69426e-06 -0.523305 -0.60044 3.12481 
0.028875 0.00853125 1.99862 1.05599e+21 7.0223e-06 3.61616 1.58843 0.671171 
0.029625 0.00853125 1.98173 1.07721e+21 7.16346e-06 3.67868 -0.454679 2.01477 
0.028875 0.00871875 2.02027 1.05145e+21 6.99214e-06 -0.184705 2.59632 5.7796 
0.029625 0.00871875 2.09786 1.12933e+21 7.51007e-06 2.03611 -0.981185 -3.33966 
0.028875 0.00890625 1.9818 1.13987e+21 7.58013e-06 1.5158 0.916228 3.13425 
0.029625 0.00890625 2.04052 1.00517e+21 6.68438e-06 0.467081 0.389045 1.12416 
0.027375 0.00909375 2.02936 1.04045e+21 6.91899e-06 -0.20892 2.80879 1.30049 
0.028125 0.00909375 2.11291 1.0641e+21 7.07624e-06 -0.747916 4.78532 -1.21177 
0.027375 0.00928125 1.93049 1.05967e+21 7.04681e-06 -2.83908 0.405659 2.4007 
0.028125 0.00928125 1.98709 1.0365e+21 6.89274e-06 4.7108 -0.651397 1.7356 
0.027375 0.00946875 1.89499 1.1104e+21 7.38418e-06 1.54402 0.0512259 2.17288 
0.028125 0.00946875 2.0028 1.09965e+21 7.31264e-06 -0.159337 2.20722 0.537877 
0.027375 0.00965625 1.99477 1.07361e+21 7.13947e-06 1.83054 3.79938 0.440681 
0.028125 0.00965625 2.04839 1.02555e+21 6.81991e-06 -5.03388 1.34122 1.59523 
0.025125 0.0100312 1.9704 1.09101e+21 7.25522e-06 -1.05093 0.869417 2.27276 
0.025875 0.00984375 2.06901 1.07615e+21 7.1564e-06 2.39419 -1.92943 -1.13662 
0.026625 0.00984375 2.0155 1.01751e+21 6.76647e-06 7.01888 -0.535048 -0.00998506 
0.025875 0.0100312 2.07772 1.07973e+21 7.18019e-06 3.06236 1.05219 3.62541 
0.025875 0.0102187 2.00878 1.02337e+21 6.8054e-06 5.61281 -1.81114 0.654689 
0.026625 0.0104062 1.98827 1.10499e+21 7.34816e-06 2.56844 -0.344772 2.97983 
0.028875 0.00984375 1.99506 1.11064e+21 7.38577e-06 2.65552 0.697992 0.641819 
0.029625 0.00984375 1.97832 1.00487e+21 6.68236e-06 1.88629 -3.75697 -1.02835 
0.028875 0.0100312 2.03456 1.05716e+21 7.03014e-06 -0.369326 -2.13696 1.18086 
0.029625 0.0100312 2.06934 1.05942e+21 7.04514e-06 -2.60776 1.72569 -2.22447 
0.025875 0.0109687 2.05182 1.038e+21 6.90272e-06 -0.652966 -0.902127 0.778032 
0.024375 0.0119063 2.05728 1.11787e+21 7.43381e-06 0.1006 0.492976 0.859072 
0.025125 0.0119063 1.96231 1.12357e+21 7.47174e-06 -1.64947 0.215098 2.75026 
0.025875 0.0132188 1.98093 9.94886e+20 6.61599e-06 1.85066 -0.679757 -0.825225 
0.028875 0.0216562 2.18456 1.03001e+21 6.84959e-06 3.51597 2.59583 -3.73539 
0.029625 0.0216562 1.93013 1.02286e+21 6.80202e-06 -4.0143 1.02416 2.10846 
0.007875 0.00646875 2.03129 1.29295e+21 8.59812e-06 4.20959 4.63346 -1.87201 
0.008625 0.00646875 2.01568 1.31045e+21 8.71446e-06 1.05348 4.27281 -4.64853 
0.007875 0.00665625 2.0582 1.23272e+21 8.19762e-06 -4.96556 9.02609 -1.08992 
0.008625 0.00665625 1.92692 1.33474e+21 8.87604e-06 -1.4663 3.64343 0.22041 
0.006375 0.00796875 1.89296 1.23829e+21 8.23461e-06 -2.71968 1.9767 4.75454 
0.007125 0.00796875 2.0083 1.23705e+21 8.22635e-06 -1.21133 3.30011 0.114198 
0.006375 0.00815625 2.00203 1.24625e+21 8.28754e-06 1.02366 7.35294 0.68907 
0.007125 0.00815625 2.0049 1.19057e+21 7.91728e-06 -2.40083 5.36248 1.27629 
0.006375 0.00946875 2.05866 1.18107e+21 7.85414e-06 4.95521 2.02577 2.20839 
0.007125 0.00946875 1.98055 1.19527e+21 7.94853e-06 -0.195788 1.82844 -2.29589 
0.006375 0.00965625 1.81212 1.17792e+21 7.83316e-06 3.48822 -0.624272 1.67781 
0.010875 0.00984375 2.05275 1.18997e+21 7.91333e-06 1.94875 -3.6859 -4.40459 
0.010875 0.0100312 1.95473 1.11245e+21 7.39777e-06 0.791978 -0.0952809 1.30813 
0.006375 0.0105937 2.03614 1.20588e+21 8.01913e-06 -2.19576 -0.0668141 -1.70186 
0.006375 0.0107812 2.12728 1.20066e+21 7.98438e-06 -0.515431 2.1597 2.84254 
0.013875 0.00909375 1.96715 1.04418e+21 6.94382e-06 -0.696486 -2.81718 1.06958 
0.014625 0.00909375 2.05594 1.07281e+21 7.13417e-06 1.03056 -1.20024 0.354921 
0.013875 0.00928125 1.98782 1.04992e+21 6.98194e-06 6.43094 -1.93811 -1.76461 
0.014625 0.00928125 1.94124 1.03528e+21 6.88463e-06 3.66899 3.87722 -3.40579 
0.013875 0.00946875 1.95482 1.1116e+21 7.39213e-06 2.7955 -4.15292 -2.07136 
0.014625 0.00946875 1.99417 1.08411e+21 7.20931e-06 4.80413 -1.83355 -1.85084 
0.014625 0.00965625 2.01279 1.08064e+21 7.18624e-06 0.513735 -0.446939 0.130476 
0.015375 0.00909375 1.96594 1.01929e+21 6.77829e-06 4.60561 -2.08096 0.302461 
0.016125 0.00909375 1.92616 1.07032e+21 7.11762e-06 -1.6247 2.0745 -4.33407 
0.015375 0.00928125 1.98982 1.08894e+21 7.24143e-06 0.819907 -0.942843 -0.392671 
0.016125 0.00928125 1.94941 1.13162e+21 7.52525e-06 1.98461 -0.517372 1.55137 
0.015375 0.00946875 1.96175 1.14148e+21 7.59084e-06 1.88807 -0.367537 -0.800057 
0.016125 0.00946875 1.99926 1.06259e+21 7.06624e-06 4.12354 -0.0983024 -1.23563 
0.015375 0.00965625 2.07002 1.08533e+21 7.21742e-06 1.67472 -3.73158 1.74707 
0.016875 0.00946875 2.00996 1.08889e+21 7.24111e-06 4.44773 -0.675375 0.167802 
0.017625 0.00946875 1.98639 1.12116e+21 7.45572e-06 0.494586 -2.31812 -1.60779 
0.016875 0.00965625 2.01998 1.02438e+21 6.81212e-06 1.70113 -3.0568 -1.18331 
0.017625 0.00965625 1.95721 9.7398e+20 6.47697e-06 2.58618 -0.3123 -0.781651 
0.012375 0.00984375 1.93044 1.15203e+21 7.66102e-06 2.90592 -4.96362 -1.69479 
0.013125 0.00984375 1.99881 1.10719e+21 7.36283e-06 2.90125 -3.73843 3.48467 
0.012375 0.0100312 1.88591 1.11696e+21 7.42779e-06 5.98995 -2.94635 1.25228 
0.013125 0.0100312 2.00196 1.10681e+21 7.36026e-06 4.17817 -1.35741 1.12594 
0.013875 0.0100312 1.9562 1.11583e+21 7.42028e-06 3.35341 -1.27721 2.437 
0.014625 0.0100312 2.02991 1.0944e+21 7.27773e-06 2.52632 -1.05972 -0.672695 
0.012375 0.0102187 1.97187 1.13523e+21 7.54928e-06 4.16053 0.0555186 -1.05858 
0.013125 0.0102187 1.99776 1.10754e+21 7.36515e-06 2.61878 1.07285 1.78512 
0.013125 0.0104062 1.93646 1.13109e+21 7.52174e-06 1.53416 -4.07964 5.01171 
0.015375 0.00984375 2.00904 1.03591e+21 6.8888e-06 2.47441 -0.868994 -0.226483 
0.016125 0.00984375 2.04306 1.01981e+21 6.78176e-06 2.53682 -4.86737 3.43746 
0.016125 0.0100312 2.14155 1.1384e+21 7.57034e-06 -2.91379 -1.51053 2.7685 
0.016875 0.00984375 1.99581 1.08305e+21 7.20227e-06 0.299325 3.13182 -1.56801 
0.017625 0.00984375 1.98402 1.11064e+21 7.38577e-06 1.21784 0.150269 1.76217 
0.016875 0.0100312 1.97637 1.06168e+21 7.06015e-06 2.8029 3.43262 -1.2793 
0.017625 0.0100312 2.02087 1.09778e+21 7.30024e-06 2.40151 -1.82381 -1.40628 
0.017625 0.0102187 1.99584 1.10976e+21 7.37988e-06 4.27163 -4.27022 -2.32455 
0.017625 0.0104062 2.0008 1.14958e+21 7.64469e-06 2.87218 0.0681383 2.27286 
0.013875 0.0105937 2.03278 1.09611e+21 7.28915e-06 3.88462 -2.44953 -1.74166 
0.013875 0.0107812 2.0568 1.13269e+21 7.53237e-06 2.13469 -1.04956 -0.0759719 
0.014625 0.0107812 2.02281 1.07915e+21 7.17634e-06 3.88317 -1.32782 0.426017 
0.014625 0.0109687 1.98883 1.09888e+21 7.30755e-06 2.43735 0.102417 0.155201 
0.013875 0.0111562 2.0009 1.08244e+21 7.19823e-06 2.59388 -0.560083 1.64233 
0.014625 0.0111562 2.05191 1.13824e+21 7.56927e-06 5.99268 -0.011737 -0.969677 
0.015375 0.0109687 2.01267 1.08753e+21 7.23207e-06 0.710899 -1.1116 -0.569199 
0.015375 0.0111562 2.02567 1.11693e+21 7.4276e-06 4.97519 2.85322 2.60963 
0.016125 0.0111562 1.9874 1.10577e+21 7.35339e-06 1.66739 0.207579 -0.736226 
0.016125 0.0119063 1.94527 1.10456e+21 7.34531e-06 1.158 -1.99447 -1.11825 
0.016875 0.0117188 1.93153 1.01793e+21 6.76922e-06 1.77135 3.7104 2.62783 
0.016875 0.0119063 2.02301 1.12737e+21 7.49702e-06 2.92275 1.03274 0.542175 
0.017625 0.0119063 2.0213 1.09695e+21 7.29474e-06 0.877123 -3.6608 1.86179 
0.013875 0.0126563 2.11009 1.07643e+21 7.15826e-06 1.23024 -4.44373 -3.32496 
0.014625 0.0126563 2.08132 1.12042e+21 7.45076e-06 4.97484 0.6358 3.07055 
0.016125 0.0122813 1.9152 1.10309e+21 7.33552e-06 0.354159 2.18008 -1.2598 
0.015375 0.0126563 1.96429 1.09354e+21 7.27201e-06 3.04714 3.14891 -1.10994 
0.017625 0.0126563 1.86437 1.05932e+21 7.04451e-06 -1.1989 0.361993 -0.38484 
0.018375 0.00759375 2.03304 1.04477e+21 6.9477e-06 1.07632 -2.52329 3.89955 
0.019125 0.00759375 1.92912 1.04477e+21 6.9477e-06 -1.55525 0.00847933 0.619659 
0.018375 0.00778125 2.02151 1.16359e+21 7.73784e-06 1.13405 0.0750218 -2.61951 
0.019125 0.00778125 2.02453 1.16504e+21 7.74751e-06 3.57437 -1.49796 -4.22046 
0.022875 0.00796875 2.04408 1.01975e+21 6.78131e-06 0.0500858 -1.13985 -0.603097 
0.023625 0.00796875 1.99644 1.00128e+21 6.65853e-06 2.29274 -1.23277 0.120075 
0.022875 0.00815625 2.08754 1.13506e+21 7.54818e-06 5.17277 -0.983854 1.63023 
0.023625 0.00815625 1.99287 1.11703e+21 7.42822e-06 4.21422 -2.81639 -1.82365 
0.018375 0.00946875 1.97864 1.02793e+21 6.83573e-06 -0.848113 2.60264 6.06245 
0.019125 0.00946875 2.03414 1.07694e+21 7.16162e-06 0.895287 2.30107 1.24341 
0.018375 0.00965625 1.98018 1.04548e+21 6.95241e-06 3.64151 -0.26254 -2.43245 
0.019125 0.00965625 2.02894 1.13338e+21 7.53698e-06 -1.18899 2.20936 -0.857353 
0.022875 0.00909375 2.01463 1.05787e+21 7.03486e-06 1.4332 1.79068 -4.57462 