ITEM: TIMESTEP
500000
ITEM: NUMBER OF CELLS
39622
ITEM: BOX BOUNDS oo ao pp
0 0.12
0 0.03
-0.1 0.1
ITEM: CELLS xc yc f_out[1] f_out[2] f_out[3] f_out[4] f_out[5] f_out[6] 
0.003 0.00375 0 0 0 0 0 0 
0.003 0.00525 0 0 0 0 0 0 
0.003 0.00675 0 0 0 0 0 0 
0.003 0.00825 0 0 0 0 0 0 
0.003 0.00975 0 0 0 0 0 0 
0.003 0.01125 0 0 0 0 0 0 
0.003 0.01275 0 0 0 0 0 0 
0.003 0.01425 0 0 0 0 0 0 
0.003 0.01575 0 0 0 0 0 0 
0.003 0.01725 0 0 0 0 0 0 
0.003 0.01875 0 0 0 0 0 0 
0.003 0.02025 0 0 0 0 0 0 
0.003 0.02175 0 0 0 0 0 0 
0.003 0.02325 0 0 0 0 0 0 
0.027 0.02325 0 0 0 0 0 0 
0.003 0.02475 0 0 0 0 0 0 
0.027 0.02475 0 0 0 0 0 0 
0.003 0.02625 0 0 0 0 0 0 
0.027 0.02625 0 0 0 0 0 0 
0.003 0.02775 0 0 0 0 0 0 
0.027 0.02775 0 0 0 0 0 0 
0.003 0.02925 0 0 0 0 0 0 
0.027 0.02925 0 0 0 0 0 0 
0.009 0.01425 0 0 0 0 0 0 
0.009 0.01575 0 0 0 0 0 0 
0.009 0.01725 0 0 0 0 0 0 
0.009 0.01875 0 0 0 0 0 0 
0.009 0.02025 0 0 0 0 0 0 
0.009 0.02175 0 0 0 0 0 0 
0.009 0.02325 0 0 0 0 0 0 
0.009 0.02475 0 0 0 0 0 0 
0.009 0.02625 0 0 0 0 0 0 
0.009 0.02775 0 0 0 0 0 0 
0.009 0.02925 0 0 0 0 0 0 
0.015 0.01425 0 0 0 0 0 0 
0.015 0.01575 0 0 0 0 0 0 
0.015 0.01725 0 0 0 0 0 0 
0.015 0.01875 0 0 0 0 0 0 
0.015 0.02025 0 0 0 0 0 0 
0.015 0.02175 0 0 0 0 0 0 
0.015 0.02325 0 0 0 0 0 0 
0.015 0.02475 0 0 0 0 0 0 
0.015 0.02625 0 0 0 0 0 0 
0.015 0.02775 0 0 0 0 0 0 
0.015 0.02925 0 0 0 0 0 0 
0.021 0.02325 0 0 0 0 0 0 
0.021 0.02475 0 0 0 0 0 0 
0.021 0.02625 0 0 0 0 0 0 
0.021 0.02775 0 0 0 0 0 0 
0.021 0.02925 0 0 0 0 0 0 
0.0015 0.000375 0 0 0 0 0 0 
0.0015 0.001125 0 0 0 0 0 0 
0.0015 0.001875 0 0 0 0 0 0 
0.0015 0.002625 0 0 0 0 0 0 
0.0045 0.002625 0 0 0 0 0 0 
0.0255 0.022125 0 0 0 0 0 0 
0.0285 0.022125 0 0 0 0 0 0 
0.0105 0.000375 1.95682 5.49869e+21 3.65663e-05 1.75529 1.98599 2.54928 
0.0075 0.013125 0 0 0 0 0 0 
0.0105 0.013125 0 0 0 0 0 0 
0.0135 0.013125 0 0 0 0 0 0 
0.0165 0.013125 0 0 0 0 0 0 
0.0195 0.022125 0 0 0 0 0 0 
0.0225 0.022125 0 0 0 0 0 0 
0.0135 0.000375 1.9694 2.54648e+21 1.69341e-05 0.391657 2.21154 2.07525 
0.00375 0.0001875 1.92236 1.30839e+22 8.70081e-05 29.7003 1.43503 -2.39155 
0.00525 0.0001875 1.9016 1.02463e+22 6.81377e-05 44.0501 4.5367 0.0785234 
0.00375 0.0020625 0 0 0 0 0 0 
0.00525 0.0020625 0 0 0 0 0 0 
0.00675 0.0001875 1.59333 6.59444e+21 4.3853e-05 57.4152 2.33498 -2.72226 
0.00825 0.0001875 1.9511 5.07032e+21 3.37176e-05 28.5156 3.2791 3.38266 
0.00975 0.0009375 2.16417 5.04811e+21 3.357e-05 5.78246 12.5088 -1.78186 
0.01125 0.0009375 0 0 0 0 0 0 
0.00975 0.0013125 2.14267 4.71621e+21 3.13628e-05 5.65576 12.1272 -0.15141 
0.01125 0.0013125 0 0 0 0 0 0 
0.00975 0.0016875 2.03093 4.69316e+21 3.12095e-05 1.51898 10.3491 -2.93814 
0.01125 0.0016875 0 0 0 0 0 0 
0.01125 0.0020625 0 0 0 0 0 0 
0.01125 0.0024375 0 0 0 0 0 0 
0.01125 0.0028125 0 0 0 0 0 0 
0.01125 0.0031875 0 0 0 0 0 0 
0.01125 0.0035625 0 0 0 0 0 0 
0.01125 0.0039375 0 0 0 0 0 0 
0.01125 0.0043125 0 0 0 0 0 0 
0.01125 0.0046875 0 0 0 0 0 0 
0.01125 0.0050625 0 0 0 0 0 0 
0.01125 0.0054375 0 0 0 0 0 0 
0.01125 0.0058125 0 0 0 0 0 0 
0.01125 0.0061875 0 0 0 0 0 0 
0.01125 0.0065625 0 0 0 0 0 0 
0.01125 0.0069375 0 0 0 0 0 0 
0.01125 0.0073125 0 0 0 0 0 0 
0.01125 0.0076875 0 0 0 0 0 0 
0.01125 0.0080625 0 0 0 0 0 0 
0.01125 0.0084375 0 0 0 0 0 0 
0.01125 0.0088125 0 0 0 0 0 0 
0.01125 0.0091875 0 0 0 0 0 0 
0.01275 0.0016875 2.00946 2.32013e+21 1.54288e-05 -2.98785 -2.87531 -1.06127 
0.01575 0.0009375 2.04286 2.56534e+21 1.70595e-05 -1.01023 0.621549 0.890939 
0.01725 0.0009375 2.05762 2.60458e+21 1.73204e-05 -2.58922 1.42541 0.754693 
0.02175 0.0009375 2.01884 2.44764e+21 1.62768e-05 -0.777729 -3.3481 3.39362 
0.02325 0.0009375 1.96091 2.45669e+21 1.6337e-05 -0.0859591 1.68 -4.68239 
0.004875 0.00046875 1.95155 1.03579e+22 6.88803e-05 41.1865 0.293747 -0.340293 
0.005625 0.00046875 1.92004 9.4646e+21 6.29396e-05 46.7923 -1.02182 -4.34468 
0.004875 0.00065625 1.83636 9.95094e+21 6.61737e-05 37.6266 -5.42344 3.75756 
0.005625 0.00065625 1.72279 1.02786e+22 6.83528e-05 46.6149 -4.28589 -0.407336 
0.003375 0.00084375 1.92668 1.32018e+22 8.77917e-05 26.6941 -2.1847 -1.60721 
0.004125 0.00084375 1.90151 1.27697e+22 8.49185e-05 32.3931 -0.783692 -0.944042 
0.003375 0.00103125 1.91636 1.3213e+22 8.78664e-05 20.1497 -5.39421 0.171365 
0.004125 0.00103125 1.89359 1.23136e+22 8.18857e-05 30.2097 -1.51472 -0.866108 
0.004875 0.00084375 1.93093 1.08382e+22 7.20737e-05 38.2853 2.76926 0.792261 
0.005625 0.00084375 1.82059 9.34925e+21 6.21725e-05 47.3622 -1.60814 -1.15068 
0.005625 0.00121875 1.9264 8.56197e+21 5.69371e-05 35.106 3.92158 0.556505 
0.005625 0.00140625 1.97848 8.88514e+21 5.90862e-05 28.4243 2.73902 1.63194 
0.003375 0.00159375 2.00088 1.44178e+22 9.58783e-05 14.0434 0.786443 -3.48452 
0.004125 0.00159375 1.90836 1.1919e+22 7.92612e-05 14.9549 -0.47058 3.48037 
0.003375 0.00178125 0 0 0 0 0 0 
0.004125 0.00178125 0 0 0 0 0 0 
0.027375 0.00496875 1.97518 2.37572e+21 1.57985e-05 1.4668 1.63178 1.07452 
0.029625 0.00496875 1.94089 2.67183e+21 1.77677e-05 2.3606 2.33502 1.91756 
0.029625 0.00534375 1.95232 2.53093e+21 1.68307e-05 2.09839 -0.0986396 3.42057 
0.024375 0.0216562 2.05203 2.54284e+21 1.69099e-05 -2.84509 -4.70959 -4.62888 
0.025125 0.0216562 1.98749 2.63583e+21 1.75283e-05 -0.901074 2.74087 1.16567 
0.025875 0.0216562 1.95683 2.43555e+21 1.61964e-05 -3.55143 3.3525 4.14999 
0.026625 0.0216562 1.99276 2.59291e+21 1.72429e-05 -1.20259 3.89268 -0.894084 
0.027375 0.0216562 1.97546 2.51423e+21 1.67196e-05 -2.89235 2.15452 1.3222 
0.028125 0.0216562 2.03573 2.57503e+21 1.7124e-05 -3.32178 -1.35327 -1.21876 
0.028875 0.0216562 1.90528 2.37833e+21 1.58159e-05 -5.03345 -0.994163 0.992888 
0.006375 0.00046875 1.6997 7.65377e+21 5.08976e-05 59.0644 1.91747 -3.62905 
0.007125 0.00046875 1.68765 5.31177e+21 3.53232e-05 63.2874 3.63644 -5.10107 
0.006375 0.00065625 1.80513 6.72594e+21 4.47275e-05 56.3949 0.634969 2.26458 
0.007125 0.00065625 1.69776 5.46698e+21 3.63554e-05 58.6272 5.51416 1.38622 
0.006375 0.00084375 1.54968 6.59947e+21 4.38865e-05 52.6216 5.21438 4.90916 
0.007125 0.00084375 1.80395 5.71417e+21 3.79993e-05 60.0729 10.3913 5.54525 
0.006375 0.00103125 1.61977 6.06902e+21 4.0359e-05 49.56 6.10146 0.392171 
0.007125 0.00103125 1.74314 4.68621e+21 3.11633e-05 47.9269 19.5369 3.33257 
0.006375 0.00159375 1.9265 4.93933e+21 3.28465e-05 25.9216 12.3576 2.20329 
0.007125 0.00159375 1.95524 4.26078e+21 2.83342e-05 26.8683 23.6402 -1.66935 
0.006375 0.00178125 1.90533 3.04982e+21 2.02813e-05 11.05 17.4768 -5.50348 
0.007125 0.00178125 1.80083 3.53906e+21 2.35347e-05 24.4552 22.7434 -0.780667 
0.007875 0.00159375 1.94115 4.53062e+21 3.01287e-05 19.6481 16.866 -2.2928 
0.008625 0.00159375 2.03431 4.67265e+21 3.10731e-05 9.48866 16.2695 0.717878 
0.007875 0.00178125 2.02155 3.8631e+21 2.56896e-05 14.1171 20.6425 1.02498 
0.008625 0.00178125 1.95863 4.25704e+21 2.83093e-05 9.75789 15.1108 -1.23165 
0.007875 0.00234375 1.96297 3.612e+21 2.40198e-05 5.36049 17.0175 -4.13586 
0.008625 0.00234375 2.07314 3.66995e+21 2.44052e-05 4.89645 16.4382 -1.70224 
0.007875 0.00253125 1.9079 3.58142e+21 2.38164e-05 -1.49382 14.2805 0.761166 
0.008625 0.00253125 2.07238 3.87205e+21 2.57491e-05 1.51976 16.033 4.29982 
0.008625 0.00271875 1.97146 3.77985e+21 2.5136e-05 2.01304 20.1492 -1.3306 
0.007875 0.00290625 1.9495 3.45031e+21 2.29446e-05 2.94414 19.4233 -0.852247 
0.008625 0.00309375 2.04523 3.76067e+21 2.50085e-05 -1.48159 12.9032 0.758315 
0.006375 0.00346875 2.01299 3.52989e+21 2.34738e-05 -6.29523 3.3289 2.64654 
0.007125 0.00346875 1.973 3.57924e+21 2.3802e-05 -5.94178 9.94824 -1.26935 
0.006375 0.00365625 1.83022 3.45915e+21 2.30033e-05 -0.0513948 9.17829 2.21135 
0.006375 0.00384375 1.89327 3.41739e+21 2.27256e-05 -1.49861 5.78186 3.5277 
0.006375 0.00403125 2.08418 3.60587e+21 2.3979e-05 -0.110075 3.68693 -2.37586 
0.006375 0.00421875 1.97892 3.01805e+21 2.007e-05 -1.77271 5.25731 0.11585 
0.006375 0.00440625 1.93111 3.50607e+21 2.33154e-05 -6.56967 2.5735 -2.54766 
0.006375 0.00459375 1.96329 3.28906e+21 2.18722e-05 1.73207 5.64287 0.71267 
0.006375 0.00478125 2.04047 3.31098e+21 2.2018e-05 -0.0796445 3.40137 -0.440529 
0.006375 0.00496875 1.8795 3.24156e+21 2.15563e-05 -0.597073 1.90812 -1.46774 
0.006375 0.00515625 2.01028 3.3418e+21 2.2223e-05 -0.398043 6.21873 -0.861406 
0.006375 0.00534375 1.96228 3.11336e+21 2.07038e-05 0.803804 2.03695 -3.91339 
0.006375 0.00553125 2.01337 3.3109e+21 2.20175e-05 -1.20633 5.44691 0.633749 
0.006375 0.00590625 2.05276 3.08991e+21 2.05479e-05 -0.186966 0.8068 -1.96808 
0.006375 0.00609375 2.01036 2.95305e+21 1.96378e-05 -2.31404 5.15833 -0.441868 
0.006375 0.00628125 2.01122 3.15544e+21 2.09837e-05 4.00377 4.44622 -4.26745 
0.006375 0.00646875 2.00484 3.16567e+21 2.10517e-05 -1.69275 3.78778 -0.275469 
0.006375 0.00665625 1.9383 3.14982e+21 2.09463e-05 0.384942 7.87031 -4.61915 
0.006375 0.00703125 2.01453 3.20215e+21 2.12943e-05 -1.45227 0.751362 -1.03049 
0.006375 0.00740625 2.04395 3.0744e+21 2.04448e-05 0.684691 2.76642 -0.676055 
0.010125 0.00684375 0 0 0 0 0 0 
0.010125 0.00703125 0 0 0 0 0 0 
0.006375 0.00759375 1.90111 3.13821e+21 2.08691e-05 -0.919713 3.21823 -0.363863 
0.010125 0.00796875 0 0 0 0 0 0 
0.010125 0.00815625 0 0 0 0 0 0 
0.006375 0.00834375 1.94764 2.85613e+21 1.89932e-05 0.600384 5.57192 0.708437 
0.010125 0.00871875 0 0 0 0 0 0 
0.010125 0.00890625 0 0 0 0 0 0 
0.010125 0.00909375 0 0 0 0 0 0 
0.010125 0.00928125 0 0 0 0 0 0 
0.010125 0.00946875 1.82472 2.85903e+21 1.90126e-05 3.76788 2.33048 4.27534 
0.010875 0.00946875 1.8828 2.49652e+21 1.66019e-05 2.79369 0.869788 -2.36986 
0.011625 0.00946875 1.92989 2.73592e+21 1.81938e-05 1.85416 -1.14478 -2.51676 
0.014625 0.00421875 1.93083 2.47614e+21 1.64663e-05 -0.452138 -2.48917 0.710077 
0.013875 0.00440625 1.94012 2.37591e+21 1.57998e-05 0.959517 -3.28467 0.631347 
0.014625 0.00440625 2.02077 2.55057e+21 1.69613e-05 -0.79006 0.453503 -3.56202 
0.013875 0.00496875 2.01257 2.24588e+21 1.49351e-05 1.60651 -1.80534 -1.06376 
0.014625 0.00515625 2.02753 2.48687e+21 1.65377e-05 1.09766 -0.404513 -2.85438 
0.015375 0.00459375 2.07731 2.4514e+21 1.63018e-05 -0.552385 -0.0967574 2.74068 
0.016125 0.00459375 1.97083 2.48342e+21 1.65148e-05 -0.0455071 -1.35475 -2.12158 
0.015375 0.00496875 2.04725 2.42355e+21 1.61166e-05 -0.431872 -2.19352 1.78005 
0.016875 0.00553125 2.02314 2.55767e+21 1.70085e-05 -0.0337144 -2.86913 -2.17601 
0.012375 0.00871875 2.1511 2.47285e+21 1.64445e-05 3.03948 -9.87565 -6.4369 
0.012375 0.00890625 1.92314 2.66859e+21 1.77461e-05 -11.4646 -3.63823 4.36902 
0.012375 0.00946875 2.0044 2.66865e+21 1.77465e-05 3.57431 -3.57331 3.64116 
0.018375 0.00421875 1.97257 2.50029e+21 1.66269e-05 1.67327 -1.55989 -0.408681 
0.019125 0.00421875 1.93269 2.52711e+21 1.68053e-05 1.63826 1.56531 4.55608 
0.019125 0.00440625 1.97476 2.4016e+21 1.59706e-05 3.04418 -5.43852 0.850361 
0.020625 0.00421875 1.99131 2.4359e+21 1.61987e-05 1.1978 -2.58154 2.4771 
0.019875 0.00440625 1.98188 2.54287e+21 1.69101e-05 0.927223 1.26463 4.35521 
0.021375 0.00384375 2.08791 2.68238e+21 1.78378e-05 0.780254 -1.8121 1.19813 
0.022125 0.00384375 1.96123 2.40266e+21 1.59777e-05 1.42177 0.733079 -0.757164 
0.021375 0.00403125 1.99197 2.54639e+21 1.69335e-05 1.20928 0.144368 0.710243 
0.022125 0.00403125 1.9452 2.74011e+21 1.82217e-05 -0.359555 -1.03379 -1.9035 
0.020625 0.00496875 2.10482 2.53061e+21 1.68285e-05 2.91877 -0.156794 -0.895853 
0.022125 0.00496875 1.95115 2.42583e+21 1.61318e-05 -0.519416 -0.517711 1.42154 
0.021375 0.00515625 2.01778 2.37493e+21 1.57933e-05 4.28576 2.25346 -3.19593 
0.021375 0.00534375 1.91197 2.50975e+21 1.66898e-05 0.259766 -1.29633 -0.273597 
0.023625 0.00534375 2.00462 2.39961e+21 1.59574e-05 3.85646 0.961232 -1.81675 
0.018375 0.0150937 0 0 0 0 0 0 
0.018375 0.0152812 0 0 0 0 0 0 
0.018375 0.0158438 0 0 0 0 0 0 
0.018375 0.0160313 0 0 0 0 0 0 
0.018375 0.0173437 0 0 0 0 0 0 
0.018375 0.0175312 0 0 0 0 0 0 
0.018375 0.0180937 0 0 0 0 0 0 
0.018375 0.0182812 0 0 0 0 0 0 
0.018375 0.0184687 0 0 0 0 0 0 
0.018375 0.0186562 0 0 0 0 0 0 
0.018375 0.0188437 0 0 0 0 0 0 
0.018375 0.0190312 0 0 0 0 0 0 
0.018375 0.0192187 0 0 0 0 0 0 
0.018375 0.0194062 0 0 0 0 0 0 
0.018375 0.0195938 0 0 0 0 0 0 
0.018375 0.0197812 0 0 0 0 0 0 
0.018375 0.0203437 0 0 0 0 0 0 
0.018375 0.0205312 0 0 0 0 0 0 
0.018375 0.0207187 0 0 0 0 0 0 
0.018375 0.0209062 0 0 0 0 0 0 
0.018375 0.0210937 0 0 0 0 0 0 
0.018375 0.0212812 0 0 0 0 0 0 
0.019875 0.0216562 2.08072 2.49993e+21 1.66245e-05 -0.158044 1.44289 3.03879 
0.020625 0.0216562 1.91466 2.42125e+21 1.61013e-05 -0.295823 3.97051 1.46963 
0.021375 0.0216562 2.12361 2.46059e+21 1.63629e-05 4.60748 1.5568 1.45918 
0.022125 0.0216562 1.9735 2.44628e+21 1.62678e-05 -1.98109 -0.837511 0.396049 
0.022875 0.0216562 1.99197 2.58219e+21 1.71715e-05 0.738652 4.95159 -2.8348 
0.023625 0.0216562 1.98645 2.56788e+21 1.70764e-05 0.66334 -0.569986 -1.63357 
0.02775 0.0013125 2.03724 2.56534e+21 1.70595e-05 0.862493 2.28426 -2.39324 
0.003375 0.00046875 1.83014 1.19769e+22 7.96463e-05 24.5004 0.66144 -1.12666 
0.004125 0.00046875 1.80952 1.27e+22 8.44547e-05 34.72 -2.70324 1.3799 
0.003375 0.00065625 1.97705 1.42506e+22 9.47667e-05 30.1841 -3.87218 -1.66345 
0.004125 0.00065625 1.93796 1.21757e+22 8.09682e-05 34.8649 -1.15854 0.536687 
0.028875 0.00271875 2.02242 2.51435e+21 1.67204e-05 -1.00925 5.52649 -2.09882 
0.029625 0.00271875 1.92601 2.73081e+21 1.81599e-05 -0.467703 -1.44191 0.144003 
0.028875 0.00290625 1.89848 2.48843e+21 1.65481e-05 5.09853 -2.04095 -1.4787 
0.029625 0.00290625 1.95579 2.66367e+21 1.77134e-05 1.45471 0.525835 -1.20482 
0.025875 0.00346875 2.08065 2.54169e+21 1.69022e-05 3.49734 -0.994661 0.918396 
0.026625 0.00346875 1.99252 2.54821e+21 1.69456e-05 0.16863 -0.184883 -2.5252 
0.025875 0.00365625 1.95203 2.58778e+21 1.72088e-05 2.87563 -5.09147 -1.86821 
0.026625 0.00365625 2.01839 2.4392e+21 1.62207e-05 0.539947 5.48131 -0.490411 
0.024375 0.00384375 1.99752 2.49099e+21 1.65651e-05 3.2386 -2.62967 2.16125 
0.025125 0.00384375 1.98931 2.53516e+21 1.68588e-05 0.380337 -1.39618 0.837747 
0.024375 0.00403125 1.88119 2.34706e+21 1.56079e-05 2.75282 -3.29968 -1.90244 
0.025125 0.00403125 1.98772 2.46778e+21 1.64107e-05 -1.25571 1.33594 -0.75466 
0.025875 0.00384375 2.0133 2.61172e+21 1.73679e-05 2.66648 -2.76942 -1.70396 
0.026625 0.00384375 2.05532 2.50866e+21 1.66826e-05 3.57884 -3.84453 4.10232 
0.026625 0.00403125 2.01015 2.44532e+21 1.62614e-05 -1.41258 4.5553 -1.3042 
0.025875 0.00421875 1.97437 2.45468e+21 1.63236e-05 2.74266 1.7685 -0.576225 
0.026625 0.00421875 1.98106 2.50565e+21 1.66626e-05 1.31905 -0.151899 -0.64371 
0.025875 0.00440625 2.02035 2.39389e+21 1.59194e-05 -0.328425 -1.61166 2.83916 
0.026625 0.00440625 1.97977 2.51975e+21 1.67563e-05 3.96886 -1.14158 -3.77446 
0.028875 0.00384375 1.98715 2.58522e+21 1.71917e-05 4.7419 0.602571 -1.79138 
0.029625 0.00384375 2.01292 2.45861e+21 1.63497e-05 0.934484 -0.558926 -0.990666 
0.029625 0.00403125 1.91124 2.40602e+21 1.6e-05 4.50337 -0.440028 0.377518 
0.027375 0.00421875 1.93072 2.48687e+21 1.65377e-05 3.60014 -2.12391 -3.05807 
0.028125 0.00421875 1.9795 2.47078e+21 1.64307e-05 2.38956 1.34227 -0.61549 
0.027375 0.00440625 1.98403 2.37848e+21 1.58169e-05 -0.682243 -2.68448 -1.45502 
0.028125 0.00440625 2.08254 2.47865e+21 1.6483e-05 -0.745627 -4.79448 1.47014 
0.025125 0.00459375 2.04689 2.69038e+21 1.7891e-05 1.34668 -1.78919 -2.39385 
0.025875 0.00478125 2.01467 2.42864e+21 1.61505e-05 -0.106565 -1.56076 2.7864 
0.027375 0.00459375 1.95567 2.54748e+21 1.69407e-05 -3.07093 0.447598 1.25964 
0.028125 0.00459375 2.0165 2.40951e+21 1.60233e-05 -2.16291 1.64107 -0.0820194 
0.028125 0.00478125 2.03918 2.547e+21 1.69375e-05 3.12782 -3.2629 0.99996 
0.007875 0.00084375 1.79653 4.48013e+21 2.97928e-05 46.3456 13.5897 -0.336735 
0.008625 0.00084375 1.97642 5.1508e+21 3.42528e-05 20.5132 12.5118 2.58053 
0.007875 0.00103125 1.90152 4.21429e+21 2.80251e-05 31.3073 15.6453 -0.584171 
0.008625 0.00103125 2.14775 4.57646e+21 3.04335e-05 17.09 16.5148 3.36168 
0.007875 0.00121875 1.9659 4.56886e+21 3.03829e-05 30.6403 11.647 -1.74214 
0.008625 0.00121875 1.82267 4.46671e+21 2.97036e-05 10.8584 15.3575 -0.292585 
0.007875 0.00140625 1.95209 4.55524e+21 3.02924e-05 26.7487 22.4416 -0.110938 
0.008625 0.00140625 1.9741 4.21722e+21 2.80445e-05 12.4254 17.5995 -2.30704 
0.006375 0.00196875 1.89225 3.26596e+21 2.17186e-05 3.48191 6.50316 3.59095 
0.007125 0.00196875 1.81249 3.6734e+21 2.44281e-05 13.219 19.7377 0.179153 
0.006375 0.00215625 1.85032 3.10006e+21 2.06154e-05 -2.11631 4.46039 -2.08065 
0.007125 0.00215625 1.98399 3.56917e+21 2.3735e-05 8.86956 16.1078 -2.54544 
0.007875 0.00196875 1.95952 4.37473e+21 2.9092e-05 12.0933 17.3398 -0.18517 
0.008625 0.00196875 2.04579 3.80562e+21 2.53073e-05 3.66927 21.1021 -0.13306 
0.007875 0.00215625 1.9867 3.96808e+21 2.63877e-05 8.89197 19.6381 -1.91962 
0.008625 0.00215625 1.95722 4.12554e+21 2.74349e-05 6.22909 19.3698 1.31004 
0.006375 0.00271875 2.03636 3.08309e+21 2.05026e-05 -3.92238 0.132066 4.75641 
0.007125 0.00271875 1.98914 3.43433e+21 2.28383e-05 1.1936 12.8334 2.22811 
0.006375 0.00290625 1.92623 3.03022e+21 2.0151e-05 2.55353 1.22568 -2.55987 
0.007125 0.00290625 1.93107 3.53988e+21 2.35402e-05 1.70548 9.55247 3.09141 
0.006375 0.00309375 2.14763 3.1278e+21 2.07998e-05 -2.64079 5.9102 -4.94449 
0.007125 0.00309375 2.02426 3.44241e+21 2.2892e-05 1.35524 4.11819 1.80235 
0.006375 0.00328125 2.12101 3.38884e+21 2.25358e-05 -0.239827 -0.53122 4.28152 
0.007125 0.00328125 1.99924 3.43885e+21 2.28684e-05 -0.282131 5.92399 1.29482 
0.009375 0.00384375 1.98707 3.44999e+21 2.29425e-05 -3.53723 12.5291 -0.897116 
0.010125 0.00384375 0 0 0 0 0 0 
0.010125 0.00403125 0 0 0 0 0 0 
0.010125 0.00646875 0 0 0 0 0 0 
0.010125 0.00665625 0 0 0 0 0 0 
0.010125 0.00721875 0 0 0 0 0 0 
0.010125 0.00740625 0 0 0 0 0 0 
0.010125 0.00834375 0 0 0 0 0 0 
0.010125 0.00853125 0 0 0 0 0 0 
0.016875 0.00346875 2.08424 2.50906e+21 1.66852e-05 -0.482634 -2.24023 3.10185 
0.017625 0.00346875 1.93829 2.37529e+21 1.57957e-05 0.480814 1.41546 -0.993518 
0.016875 0.00365625 1.94664 2.46087e+21 1.63648e-05 2.21523 -2.79232 2.07304 
0.017625 0.00365625 2.1023 2.28134e+21 1.51709e-05 2.61696 0.189397 -4.72413 
0.016125 0.00421875 1.98822 2.46273e+21 1.63771e-05 5.79356 -1.32632 -0.741276 
0.015375 0.00440625 1.98605 2.46067e+21 1.63635e-05 -0.193775 -2.76661 2.59162 
0.013875 0.00459375 2.02378 2.49574e+21 1.65967e-05 -0.880432 -1.12015 0.809193 
0.013875 0.00478125 2.06971 2.46888e+21 1.64181e-05 2.18764 -0.0930476 1.42332 
0.017625 0.00459375 2.03966 2.44154e+21 1.62362e-05 1.83093 2.33646 -0.956599 
0.012375 0.00684375 1.92827 2.30695e+21 1.53412e-05 1.29695 -6.60387 5.93974 
0.012375 0.00703125 2.05351 2.53516e+21 1.68588e-05 -2.11293 -2.12757 -5.22654 
0.012375 0.00759375 1.88836 2.52622e+21 1.67994e-05 -0.655435 5.87346 -9.65308 
0.012375 0.00778125 2.11276 2.68352e+21 1.78454e-05 7.54982 -1.92561 3.15686 
0.012375 0.00796875 1.82297 2.7269e+21 1.81339e-05 0.0784325 -0.87296 -4.25061 
0.012375 0.00815625 2.04514 2.45607e+21 1.63329e-05 6.8509 12.4691 6.33232 
0.012375 0.00834375 1.88793 2.42122e+21 1.61011e-05 6.09277 5.5169 -3.82868 
0.012375 0.00853125 1.88201 2.6068e+21 1.73352e-05 -5.85652 -3.68986 2.00881 
0.012375 0.00909375 1.82126 2.68824e+21 1.78768e-05 -0.50962 0.697394 -7.11223 
0.012375 0.00928125 1.88675 2.81685e+21 1.8732e-05 -1.75099 -6.4702 -1.85619 
0.018375 0.00196875 2.03172 2.73636e+21 1.81968e-05 2.70269 -0.205239 -0.684025 
0.019125 0.00196875 2.0393 2.28797e+21 1.5215e-05 1.96738 -1.115 -2.13723 
0.018375 0.00215625 2.0085 2.57715e+21 1.71381e-05 -5.08706 -1.74905 4.92104 
0.019125 0.00215625 2.12181 2.30946e+21 1.53579e-05 3.34144 0.77221 1.12951 
0.018375 0.00309375 1.97436 2.56809e+21 1.70778e-05 -2.02894 5.03501 0.764518 
0.019125 0.00309375 1.87679 2.42907e+21 1.61533e-05 1.70999 -2.53663 1.6776 
0.018375 0.00328125 2.04504 2.48687e+21 1.65377e-05 3.78726 3.03923 0.591397 
0.019125 0.00328125 2.01633 2.50757e+21 1.66753e-05 1.44233 -5.44823 4.70289 
0.018375 0.00346875 2.00401 2.48948e+21 1.65551e-05 -0.0208321 0.400607 0.0375533 
0.019125 0.00346875 1.91765 2.58084e+21 1.71626e-05 1.34016 -1.45138 -2.39714 
0.018375 0.00365625 2.08631 2.48254e+21 1.65089e-05 0.473574 2.60148 -4.14328 
0.019125 0.00365625 2.00148 2.44849e+21 1.62825e-05 3.07058 1.02377 0.468681 
0.019875 0.00346875 2.01892 2.67546e+21 1.77918e-05 -0.429529 -1.66944 3.56397 
0.020625 0.00346875 2.02215 2.45359e+21 1.63164e-05 2.51461 3.94354 1.23867 
0.019875 0.00365625 2.01218 2.50421e+21 1.6653e-05 3.39055 -0.539255 0.111398 
0.020625 0.00365625 1.94753 2.6435e+21 1.75793e-05 5.12778 -1.43735 0.574547 
0.019875 0.00384375 1.9864 2.47627e+21 1.64672e-05 7.49727 -0.864598 0.668758 
0.020625 0.00384375 1.99941 2.56461e+21 1.70546e-05 6.24272 -1.40642 -0.914557 
0.019875 0.00403125 2.01948 2.58008e+21 1.71575e-05 5.48448 1.62242 1.56385 
0.020625 0.00403125 1.96929 2.48743e+21 1.65414e-05 3.75132 -1.46038 2.16534 
0.022875 0.00384375 1.98346 2.41444e+21 1.6056e-05 2.37765 5.28534 1.39432 
0.023625 0.00384375 2.0048 2.39088e+21 1.58994e-05 2.84157 -2.57267 2.36567 
0.023625 0.00403125 2.03383 2.41444e+21 1.6056e-05 0.759224 1.5093 2.28544 
0.018375 0.00459375 2.06279 2.56719e+21 1.70718e-05 2.37159 -0.048959 1.41251 
0.019125 0.00459375 2.01598 2.34299e+21 1.55809e-05 3.02238 1.44464 -0.736178 
0.020625 0.00459375 1.90876 2.35038e+21 1.563e-05 3.39048 -0.376879 -0.539988 
0.020625 0.00478125 2.03321 2.58724e+21 1.72051e-05 3.45172 -2.26623 0.331109 
0.021375 0.00459375 1.9524 2.54994e+21 1.69571e-05 3.73887 2.48274 -0.946305 
0.022125 0.00459375 2.05471 2.60907e+21 1.73503e-05 4.45227 0.182137 1.05075 
0.022875 0.00459375 2.09647 2.40951e+21 1.60233e-05 3.58331 1.14152 -1.94947 
0.023625 0.00459375 1.98153 2.54009e+21 1.68916e-05 3.52203 0.896692 -2.46086 
0.018375 0.0139688 0 0 0 0 0 0 
0.018375 0.0141563 0 0 0 0 0 0 
0.018375 0.0147187 0 0 0 0 0 0 
0.018375 0.0149062 0 0 0 0 0 0 
0.018375 0.0154687 0 0 0 0 0 0 
0.018375 0.0156563 0 0 0 0 0 0 
0.018375 0.0162188 0 0 0 0 0 0 
0.018375 0.0164062 0 0 0 0 0 0 
0.018375 0.0165937 0 0 0 0 0 0 
0.018375 0.0167812 0 0 0 0 0 0 
0.018375 0.0177187 0 0 0 0 0 0 
0.018375 0.0179062 0 0 0 0 0 0 
0.018375 0.0199687 0 0 0 0 0 0 
0.018375 0.0201562 0 0 0 0 0 0 
0.0279375 0.00885938 2.00876 2.50386e+21 1.66507e-05 3.99337 -1.79052 0.729714 
0.0283125 0.00885938 2.02831 2.37101e+21 1.57672e-05 1.58777 -3.12124 -1.67985 
0.0279375 0.00895312 2.00403 2.50798e+21 1.66781e-05 -0.563208 1.71884 -1.06906 
0.0283125 0.00895312 1.79532 2.40685e+21 1.60056e-05 4.66216 5.05896 1.02014 
0.0256875 0.0101719 1.89182 2.37661e+21 1.58045e-05 3.46652 -1.34398 -4.64414 
0.0260625 0.0101719 1.98152 2.43447e+21 1.61892e-05 1.4034 3.06366 -3.59005 
0.0256875 0.0102656 2.08797 2.44751e+21 1.6276e-05 2.08246 3.35253 3.02136 
0.0260625 0.0102656 1.89998 2.37695e+21 1.58068e-05 1.95201 4.7792 6.52653 
0.0279375 0.0101719 2.00997 2.48342e+21 1.65148e-05 -1.10164 -1.21352 1.4762 
0.0283125 0.0101719 2.03228 2.46562e+21 1.63964e-05 -0.972687 2.12522 -0.273119 
0.0279375 0.0102656 1.92421 2.47838e+21 1.64813e-05 8.72525 5.99162 1.18004 
0.0283125 0.0102656 1.90574 2.37255e+21 1.57774e-05 -2.81575 -4.11689 1.66256 
0.0249375 0.0118594 1.96397 2.45834e+21 1.63479e-05 -0.235365 0.273488 0.242477 
0.0253125 0.0118594 2.04927 2.58431e+21 1.71857e-05 -0.220841 1.99087 -0.0583506 
0.0249375 0.0119531 1.95045 2.47693e+21 1.64716e-05 -2.9368 -0.0700164 0.670527 
0.0253125 0.0119531 2.01552 2.55647e+21 1.70005e-05 2.40255 -1.31049 2.849 
0.0256875 0.0116719 1.94419 2.4125e+21 1.60431e-05 -0.0146809 1.22165 2.15688 
0.0260625 0.0116719 2.02869 2.49783e+21 1.66106e-05 0.0390004 1.06655 -4.37727 
0.0256875 0.0117656 1.93561 2.47793e+21 1.64782e-05 0.77903 -0.676045 2.71232 
0.0260625 0.0117656 2.07951 2.54719e+21 1.69388e-05 0.0235099 -1.28114 -1.71123 
0.0286875 0.0118594 1.93194 2.27893e+21 1.51549e-05 -1.35889 -1.13994 -0.5847 
0.0290625 0.0118594 1.91397 2.37818e+21 1.58149e-05 1.24387 1.8968 -0.844159 
0.0286875 0.0119531 2.03461 2.50723e+21 1.66731e-05 1.36551 2.91834 2.46694 
0.0290625 0.0119531 2.06178 2.48829e+21 1.65471e-05 -1.1629 -0.671108 -2.8886 
0.0249375 0.0122344 2.00934 2.66791e+21 1.77416e-05 2.63263 1.26399 -1.27825 
0.0253125 0.0122344 1.9855 2.5791e+21 1.7151e-05 -3.64686 1.37218 -3.01013 
0.0249375 0.0123281 1.98657 2.58152e+21 1.71671e-05 3.75766 1.06227 1.428 
0.0253125 0.0123281 1.97554 2.42362e+21 1.61171e-05 4.42111 4.5867 1.71773 
0.0249375 0.0124219 1.99663 2.37617e+21 1.58015e-05 1.75274 1.37051 1.18889 
0.0253125 0.0124219 2.0761 2.61671e+21 1.74011e-05 0.184976 1.74398 -5.49964 
0.0249375 0.0125156 2.04212 2.58987e+21 1.72226e-05 -4.49962 -0.911298 -3.01514 
0.0253125 0.0125156 2.04199 2.31497e+21 1.53945e-05 3.74769 2.54081 3.09202 
0.0256875 0.0124219 1.99007 2.39075e+21 1.58985e-05 -5.68283 3.12972 2.24298 
0.0260625 0.0124219 1.9698 2.62035e+21 1.74253e-05 -2.56617 2.45519 -0.249266 
0.0256875 0.0125156 2.02549 2.53923e+21 1.68859e-05 2.40631 0.759645 3.05233 
0.0260625 0.0125156 1.99387 2.25709e+21 1.50097e-05 0.528981 -0.0123434 -4.21888 
0.0286875 0.0120469 2.1257 2.34492e+21 1.55937e-05 1.28054 2.83724 -2.32718 
0.0290625 0.0120469 2.04617 2.61924e+21 1.7418e-05 3.82161 -0.108365 -1.80759 
0.0286875 0.0121406 1.95122 2.60648e+21 1.73331e-05 -0.778702 2.15 -1.3499 
0.0290625 0.0121406 1.96528 2.4163e+21 1.60684e-05 3.97048 -3.08348 -2.4889 
0.0271875 0.0124219 2.05653 2.44177e+21 1.62378e-05 1.91194 0.440611 1.68406 
0.0275625 0.0124219 1.93739 2.59484e+21 1.72557e-05 0.746692 -2.62232 0.390487 
0.0271875 0.0125156 2.01505 2.27518e+21 1.51299e-05 0.496366 -1.81716 -1.89784 
0.0275625 0.0125156 2.02099 2.5537e+21 1.69821e-05 4.24748 0.892785 1.46964 
0.0286875 0.0126094 2.12288 2.62447e+21 1.74527e-05 -4.74138 -1.59641 0.384285 
0.0290625 0.0126094 2.01075 2.31212e+21 1.53756e-05 3.69484 -2.35124 -2.78489 
0.0286875 0.0127031 2.00959 2.29862e+21 1.52858e-05 1.19946 -1.56998 0.803 
0.0290625 0.0127031 1.95307 2.59797e+21 1.72765e-05 -2.41126 0.498751 3.32556 
0.0249375 0.0127969 2.04715 2.54003e+21 1.68912e-05 0.699243 3.24847 0.928302 
0.0253125 0.0127969 1.98664 2.54003e+21 1.68912e-05 -1.19449 1.20908 4.07344 
0.0249375 0.0128906 2.0451 2.43727e+21 1.62078e-05 4.66885 3.2879 -6.3791 
0.0253125 0.0128906 1.9532 2.2687e+21 1.50868e-05 2.59893 0.436748 -1.66878 
0.0279375 0.0127969 1.90585 2.46574e+21 1.63971e-05 0.501355 2.08649 1.27708 
0.0283125 0.0127969 1.93925 2.53649e+21 1.68676e-05 -1.52529 1.53309 2.33434 
0.0279375 0.0128906 1.98736 2.60584e+21 1.73288e-05 3.64082 2.42466 1.59783 
0.0283125 0.0128906 2.07313 2.51804e+21 1.6745e-05 -2.30139 -0.952598 -5.66857 
0.0279375 0.0131719 1.98163 2.50895e+21 1.66845e-05 1.781 2.51547 -0.22303 
0.0283125 0.0131719 1.96964 2.49521e+21 1.65931e-05 3.24833 -0.0136246 -1.46561 
0.0279375 0.0132656 2.01076 2.44003e+21 1.62262e-05 0.857256 0.229854 1.45333 
0.0283125 0.0132656 2.01576 2.56971e+21 1.70886e-05 3.69813 -0.531778 0.706153 
0.0294375 0.0133594 2.08627 2.47035e+21 1.64278e-05 0.89793 -5.0683 0.289178 
0.0298125 0.0133594 1.9785 2.4263e+21 1.61349e-05 -0.0805854 4.21787 3.6827 
0.0294375 0.0134531 1.96708 2.3993e+21 1.59553e-05 1.29421 -0.569081 3.40535 
0.0298125 0.0134531 1.96715 2.45314e+21 1.63134e-05 -0.947956 1.2171 -0.0239643 
0.0249375 0.0139219 2.05358 2.58191e+21 1.71697e-05 1.33073 -0.387597 -3.39825 
0.0253125 0.0139219 2.03186 2.51362e+21 1.67156e-05 1.17712 -0.0744473 -0.100539 
0.0249375 0.0140156 1.92268 2.33853e+21 1.55513e-05 0.383328 3.4933 -1.38447 
0.0253125 0.0140156 1.98222 2.63247e+21 1.75059e-05 0.367077 -0.194619 2.20766 
0.0249375 0.0141094 1.97703 2.42567e+21 1.61307e-05 0.627943 0.503999 1.57768 
0.0253125 0.0141094 1.90543 2.53797e+21 1.68775e-05 2.96213 2.09981 -1.05499 
0.0249375 0.0142031 1.93582 2.49572e+21 1.65965e-05 5.61137 2.7007 3.10499 
0.0253125 0.0142031 1.94363 2.53397e+21 1.68509e-05 -1.22896 -0.112508 -0.826831 
0.0256875 0.0139219 2.02318 2.45834e+21 1.63479e-05 -0.484695 0.512394 -2.5985 
0.0260625 0.0139219 1.91124 2.48435e+21 1.65209e-05 -2.33539 1.48251 1.06151 
0.0256875 0.0140156 1.93405 2.39344e+21 1.59164e-05 -3.45741 0.102176 -7.05323 
0.0260625 0.0140156 1.96195 2.43866e+21 1.62171e-05 -2.23963 0.134001 -0.0668916 
0.0264375 0.0139219 2.01744 2.55914e+21 1.70183e-05 1.18681 3.7135 -1.90196 
0.0268125 0.0139219 2.01469 2.57865e+21 1.7148e-05 0.206409 2.32485 5.46288 
0.0264375 0.0140156 2.05877 2.61309e+21 1.7377e-05 -0.267072 0.279327 -0.544859 
0.0268125 0.0140156 1.94383 2.4322e+21 1.61742e-05 -1.50087 -0.0587539 2.44097 
0.0264375 0.0141094 1.98754 2.28128e+21 1.51705e-05 -0.548605 -2.84398 -0.093752 
0.0268125 0.0141094 2.01387 2.2877e+21 1.52132e-05 -4.14709 -1.84949 -1.64137 
0.0264375 0.0142031 1.93746 2.5754e+21 1.71264e-05 0.376481 1.3998 2.72306 
0.0268125 0.0142031 1.98832 2.42878e+21 1.61514e-05 0.546151 2.11792 -3.91852 
0.0279375 0.0137344 2.02701 2.50179e+21 1.66369e-05 0.503625 -2.10501 -1.94051 
0.0283125 0.0137344 2.02775 2.46883e+21 1.64177e-05 -0.936141 0.641371 1.32604 
0.0279375 0.0138281 2.03348 2.51102e+21 1.66983e-05 1.29557 5.63798 2.77104 
0.0283125 0.0138281 2.07424 2.57649e+21 1.71337e-05 1.48248 2.10869 3.48691 
0.0286875 0.0137344 1.99545 2.46883e+21 1.64177e-05 -1.58105 3.52489 3.44945 
0.0290625 0.0137344 1.92632 2.4095e+21 1.60231e-05 4.3628 -0.357726 0.307664 
0.0286875 0.0138281 2.02654 2.4128e+21 1.60451e-05 -2.18943 3.28087 1.96156 
0.0290625 0.0138281 2.02123 2.58959e+21 1.72208e-05 2.42351 -0.00879626 -2.78391 
0.0279375 0.0139219 1.94424 2.299e+21 1.52884e-05 -2.22358 3.74137 3.34982 
0.0283125 0.0139219 2.06833 2.50061e+21 1.66291e-05 -2.00528 3.49608 0.670481 
0.0279375 0.0140156 1.97101 2.5711e+21 1.70978e-05 5.08561 -2.29566 3.9476 
0.0283125 0.0140156 1.97214 2.58402e+21 1.71837e-05 0.759584 0.743369 -2.00204 
0.0294375 0.0141094 2.04564 2.57968e+21 1.71549e-05 -2.81806 -0.221594 3.94495 