ITEM: TIMESTEP
500000
ITEM: NUMBER OF CELLS
41651
ITEM: BOX BOUNDS oo ao pp
0 0.35
0 0.03
-0.1 0.1
ITEM: CELLS xc yc f_out[1] f_out[2] f_out[3] f_out[4] f_out[5] f_out[6] 
0.00875 0.01575 0 0 0 0 0 0 
0.00875 0.01875 0 0 0 0 0 0 
0.00875 0.02175 0 0 0 0 0 0 
0.00875 0.02475 0 0 0 0 0 0 
0.00875 0.02775 0 0 0 0 0 0 
0.02625 0.02475 0 0 0 0 0 0 
0.02625 0.02775 0 0 0 0 0 0 
0.00875 0.01425 0 0 0 0 0 0 
0.00875 0.01725 0 0 0 0 0 0 
0.00875 0.02025 0 0 0 0 0 0 
0.00875 0.02325 0 0 0 0 0 0 
0.00875 0.02625 0 0 0 0 0 0 
0.00875 0.02925 0 0 0 0 0 0 
0.02625 0.02325 0 0 0 0 0 0 
0.02625 0.02625 0 0 0 0 0 0 
0.02625 0.02925 0 0 0 0 0 0 
0.04375 0.02325 0 0 0 0 0 0 
0.04375 0.02625 0 0 0 0 0 0 
0.04375 0.02925 7.09506e-17 2.07284e+15 1.37844e-11 -32.7766 6.09163 8.98629 
0.004375 0.013125 0 0 0 0 0 0 
0.013125 0.013125 0 0 0 0 0 0 
0.021875 0.022125 0 0 0 0 0 0 
0.030625 0.022125 0 0 0 0 0 0 
0.0021875 0.0001875 2.02807 1.32024e+22 8.77959e-05 29.8603 0.00694069 -1.81495 
0.0021875 0.0031875 0 0 0 0 0 0 
0.0021875 0.0035625 0 0 0 0 0 0 
0.0021875 0.0039375 0 0 0 0 0 0 
0.0021875 0.0043125 0 0 0 0 0 0 
0.0021875 0.0061875 0 0 0 0 0 0 
0.0021875 0.0065625 0 0 0 0 0 0 
0.0021875 0.0069375 0 0 0 0 0 0 
0.0021875 0.0073125 0 0 0 0 0 0 
0.0021875 0.0091875 0 0 0 0 0 0 
0.0021875 0.0095625 0 0 0 0 0 0 
0.0021875 0.0099375 0 0 0 0 0 0 
0.0021875 0.0103125 0 0 0 0 0 0 
0.0021875 0.0121875 0 0 0 0 0 0 
0.0021875 0.0125625 0 0 0 0 0 0 
0.0021875 0.0020625 0 0 0 0 0 0 
0.0021875 0.0024375 0 0 0 0 0 0 
0.0021875 0.0028125 0 0 0 0 0 0 
0.0021875 0.0046875 0 0 0 0 0 0 
0.0021875 0.0050625 0 0 0 0 0 0 
0.0021875 0.0054375 0 0 0 0 0 0 
0.0021875 0.0058125 0 0 0 0 0 0 
0.0021875 0.0076875 0 0 0 0 0 0 
0.0021875 0.0080625 0 0 0 0 0 0 
0.0021875 0.0084375 0 0 0 0 0 0 
0.0021875 0.0088125 0 0 0 0 0 0 
0.0021875 0.0106875 0 0 0 0 0 0 
0.0021875 0.0110625 0 0 0 0 0 0 
0.0021875 0.0114375 0 0 0 0 0 0 
0.0021875 0.0118125 0 0 0 0 0 0 
0.0284375 0.0001875 2.1096 2.63346e+21 1.75125e-05 1.58462 0.791167 -2.30631 
0.0328125 0.0001875 1.98744 2.50412e+21 1.66524e-05 0.113327 1.28457 3.55007 
0.00109375 0.00046875 0 0 0 0 0 0 
0.00328125 0.00046875 1.96227 1.29258e+22 8.59568e-05 28.2844 -0.383977 1.19248 
0.00109375 0.00065625 0 0 0 0 0 0 
0.00765625 0.00046875 1.8351 5.44698e+21 3.62224e-05 40.9519 6.83075 0.932988 
0.00765625 0.00065625 1.80267 5.17971e+21 3.44451e-05 43.5803 7.76084 0.368254 
0.00109375 0.00084375 0 0 0 0 0 0 
0.00109375 0.00103125 0 0 0 0 0 0 
0.00109375 0.00121875 0 0 0 0 0 0 
0.00109375 0.00140625 0 0 0 0 0 0 
0.00546875 0.00309375 1.91112 3.46027e+21 2.30108e-05 1.09884 7.50045 -10.0847 
0.00546875 0.00328125 1.99549 3.20167e+21 2.12911e-05 1.09658 4.86794 0.632457 
0.00546875 0.00346875 2.1033 3.13225e+21 2.08294e-05 6.42448 9.31792 7.24499 
0.00546875 0.00365625 2.03446 3.67082e+21 2.4411e-05 -9.43497 8.78981 -1.18603 
0.0120312 0.00309375 1.98845 2.39507e+21 1.59272e-05 -0.844737 -1.65376 2.49067 
0.0120312 0.00328125 1.98634 2.53212e+21 1.68386e-05 2.87466 -2.17185 4.88992 
0.00546875 0.00384375 1.94775 3.47097e+21 2.3082e-05 -0.114047 6.79455 -0.900967 
0.00546875 0.00403125 1.95322 3.45816e+21 2.29968e-05 0.395691 3.54676 -2.03628 
0.00546875 0.00421875 2.00793 3.27606e+21 2.17858e-05 -1.39798 11.0377 -4.91501 
0.00546875 0.00440625 1.93822 3.58086e+21 2.38127e-05 3.5811 5.91458 0.573246 
0.0120312 0.00384375 1.86144 2.71235e+21 1.80371e-05 2.03554 3.50406 -4.17487 
0.0120312 0.00403125 2.0242 2.72987e+21 1.81536e-05 1.29634 0.299796 -1.91332 
0.0120312 0.00421875 1.93848 2.52333e+21 1.67801e-05 1.76605 -0.114736 -2.71546 
0.0120312 0.00440625 1.97938 2.66978e+21 1.77541e-05 -0.274105 4.02069 -4.50266 
0.00546875 0.00609375 1.99981 3.47417e+21 2.31032e-05 1.38778 0.460313 6.35302 
0.00546875 0.00628125 1.93767 3.2242e+21 2.14409e-05 3.03355 6.21315 -0.510651 
0.00546875 0.00646875 2.02352 3.51977e+21 2.34065e-05 -2.60687 2.1518 2.50281 
0.00546875 0.00665625 2.04378 3.36661e+21 2.2388e-05 4.56015 3.8843 1.61757 
0.0120312 0.00609375 1.92764 2.72362e+21 1.81121e-05 -0.508679 -3.94756 -0.417531 
0.0120312 0.00628125 2.10289 2.5978e+21 1.72754e-05 -1.68894 1.25479 -1.24041 
0.0120312 0.00646875 2.01464 2.49163e+21 1.65693e-05 -0.293486 1.5807 5.55326 
0.0120312 0.00665625 2.02202 2.55346e+21 1.69805e-05 -0.115253 -1.52283 1.04948 
0.00546875 0.00684375 1.93572 3.33858e+21 2.22016e-05 -0.698201 3.08062 -3.30652 
0.00546875 0.00703125 2.02406 3.07344e+21 2.04384e-05 -0.0634141 2.66757 4.22063 
0.00546875 0.00721875 1.96615 3.23708e+21 2.15266e-05 -5.00909 7.8271 -3.96216 
0.00546875 0.00740625 1.86802 3.16592e+21 2.10534e-05 4.17456 1.95115 -6.0746 
0.0120312 0.00684375 1.97996 2.76659e+21 1.83978e-05 -0.714508 0.529247 1.51933 
0.00546875 0.00909375 2.02283 3.16264e+21 2.10315e-05 -3.13915 4.96733 1.13469 
0.00546875 0.00928125 2.05213 3.19773e+21 2.12649e-05 1.64599 4.49724 -0.956359 
0.00546875 0.00946875 2.00349 2.88552e+21 1.91887e-05 -1.95084 2.83663 -3.21263 
0.00546875 0.00965625 2.05315 2.82535e+21 1.87886e-05 -1.88949 3.0309 1.00826 
0.00546875 0.00984375 1.97162 2.97443e+21 1.97799e-05 2.28645 3.58784 -1.61117 
0.00546875 0.0100312 2.06191 2.91485e+21 1.93837e-05 0.565843 0.418372 -0.138286 
0.00546875 0.0102187 1.94684 2.90436e+21 1.9314e-05 0.600012 0.674465 -1.74377 
0.00546875 0.0104062 2.04789 2.93648e+21 1.95276e-05 -1.74315 2.00245 1.74948 
0.00546875 0.0120938 1.96769 3.01888e+21 2.00755e-05 0.95185 -1.61672 0.323703 
0.00546875 0.0122813 1.89451 2.9305e+21 1.94878e-05 4.69594 -1.56887 0.162928 
0.00546875 0.0126563 2.10813 3.04451e+21 2.0246e-05 -1.0243 1.65341 3.14799 
0.0317187 0.00121875 1.99455 2.6267e+21 1.74675e-05 -1.03569 2.08206 2.03566 
0.0339062 0.00121875 2.02229 2.44522e+21 1.62607e-05 3.49191 0.450053 -0.17302 
0.0339062 0.00140625 1.94722 2.71521e+21 1.80561e-05 4.82816 -2.05443 1.45396 
0.00546875 0.00178125 2.15091 3.27407e+21 2.17726e-05 2.99436 9.74456 7.3143 
0.00546875 0.00196875 2.23472 3.34775e+21 2.22626e-05 -0.51443 9.81445 -6.58085 
0.00546875 0.00215625 2.00069 3.40862e+21 2.26673e-05 2.28184 5.05168 0.187321 
0.0142187 0.00159375 1.94946 2.52481e+21 1.679e-05 -2.73575 -0.636579 -2.58735 
0.0164062 0.00159375 1.95947 2.54916e+21 1.69519e-05 5.41135 -1.15779 1.74626 
0.00984375 0.00196875 1.95033 4.57129e+21 3.03991e-05 3.656 15.5611 1.34983 
0.0120312 0.00196875 1.9529 2.52603e+21 1.67981e-05 -2.68934 3.44077 -1.36825 
0.00984375 0.00215625 2.00249 4.36557e+21 2.90311e-05 0.483355 15.6633 2.61365 
0.0120312 0.00215625 2.01177 2.88065e+21 1.91564e-05 2.00634 -1.13229 2.63207 
0.00546875 0.00234375 2.02001 3.64722e+21 2.4254e-05 0.31992 -3.34026 -1.11117 
0.00546875 0.00253125 1.89654 3.26659e+21 2.17229e-05 4.46347 6.95343 -2.10217 
0.00546875 0.00271875 1.9613 3.40862e+21 2.26673e-05 4.6418 6.70063 8.8154 
0.00546875 0.00290625 2.05495 3.3399e+21 2.22103e-05 1.19854 2.67243 8.60079 
0.00546875 0.00459375 2.12088 3.67818e+21 2.44599e-05 -2.89265 6.36237 0.555151 
0.00546875 0.00478125 2.00395 3.71774e+21 2.47229e-05 2.89675 1.43876 3.71225 
0.00546875 0.00496875 2.06566 3.2398e+21 2.15447e-05 3.19371 0.222861 1.76398 
0.00546875 0.00515625 1.97025 3.16072e+21 2.10188e-05 -0.863415 -0.472537 4.37621 
0.0120312 0.00496875 1.9373 2.74539e+21 1.82568e-05 -0.444992 1.34612 -0.834605 
0.0120312 0.00515625 2.01444 2.45188e+21 1.6305e-05 -6.10663 1.19626 -3.84446 
0.00546875 0.00534375 1.92662 3.31892e+21 2.20708e-05 -1.87433 6.6443 -1.44223 
0.00546875 0.00553125 2.02154 3.22808e+21 2.14667e-05 -1.00063 3.10877 0.739564 
0.00546875 0.00571875 1.99089 3.28289e+21 2.18312e-05 5.05233 2.38841 -2.3297 
0.00546875 0.00590625 2.07241 3.21249e+21 2.13631e-05 0.396564 2.41188 -5.40011 
0.0120312 0.00534375 2.02909 2.48919e+21 1.65531e-05 1.50797 1.54484 -2.44386 
0.0120312 0.00553125 1.9677 2.49508e+21 1.65923e-05 3.27367 2.36048 -3.06768 
0.0120312 0.00571875 2.11245 2.43423e+21 1.61876e-05 -1.87056 3.09007 4.23011 
0.0120312 0.00590625 1.97576 2.52603e+21 1.67981e-05 -1.50466 -0.563393 0.813467 
0.00546875 0.00759375 1.97882 3.29816e+21 2.19327e-05 1.71811 0.990589 0.112413 
0.00546875 0.00778125 2.00321 3.12115e+21 2.07556e-05 2.50746 0.26091 1.34034 
0.00546875 0.00796875 1.98097 2.99758e+21 1.99339e-05 -0.950482 4.55044 0.0946237 
0.00546875 0.00815625 1.89524 3.31067e+21 2.2016e-05 2.2922 4.98219 -1.09763 
0.0120312 0.00759375 2.06749 2.51964e+21 1.67556e-05 -5.62571 -1.56536 0.532042 
0.0120312 0.00778125 2.02303 2.68737e+21 1.7871e-05 2.99371 -3.56069 2.9745 
0.0120312 0.00815625 2.09767 2.59809e+21 1.72773e-05 -1.81259 -1.61022 2.71975 
0.00546875 0.00834375 2.0778 3.31766e+21 2.20624e-05 -0.516439 0.832347 1.21248 
0.00546875 0.00853125 2.07359 3.02468e+21 2.01141e-05 3.58467 4.85229 -2.64795 
0.00546875 0.00871875 1.98246 3.39488e+21 2.25759e-05 2.35377 6.1838 1.22699 
0.00546875 0.00890625 1.94015 3.25164e+21 2.16234e-05 3.15507 -0.383692 1.39514 
0.0120312 0.00834375 2.01142 2.59716e+21 1.72711e-05 -0.521963 -1.22928 1.09818 
0.0120312 0.00853125 1.91996 2.5869e+21 1.72029e-05 0.824105 -0.785562 1.43536 
0.00546875 0.0105937 1.9648 2.90713e+21 1.93324e-05 1.62032 -0.209852 -0.00498824 
0.00546875 0.0107812 2.02893 2.88992e+21 1.92179e-05 5.80873 0.247938 2.41974 
0.00546875 0.0109687 1.98416 2.90607e+21 1.93253e-05 1.95088 3.03224 -2.63903 
0.00546875 0.0111562 2.09313 2.85006e+21 1.89529e-05 2.43054 1.64565 -2.44472 
0.00546875 0.0113437 2.00398 2.98254e+21 1.98339e-05 -1.44644 0.943706 -3.55715 
0.00546875 0.0115312 2.02107 2.93058e+21 1.94884e-05 -2.02163 -0.358659 -0.749298 
0.00546875 0.0117188 2.03237 2.82915e+21 1.88139e-05 0.599084 -0.144714 -0.47592 
0.00546875 0.0119063 2.08947 2.97583e+21 1.97893e-05 0.597976 -2.95656 1.42894 
0.0229687 0.00159375 2.03943 2.71472e+21 1.80529e-05 -1.08454 -1.5604 -0.60554 
0.0251562 0.00159375 1.96781 2.56864e+21 1.70814e-05 2.71096 -1.85759 0.579818 
0.0109375 0.0001875 2.02886 5.10747e+21 3.39647e-05 16.3585 -3.71033 6.12222 
0.0109375 0.0001875 1.85316 3.19558e+21 2.12506e-05 -8.48865 -4.19872 -3.41253 
0.0153125 0.0001875 2.00453 2.71107e+21 1.80286e-05 -2.71122 -1.03652 -1.10604 
0.0109375 0.0005625 2.03754 5.4944e+21 3.65377e-05 9.2905 11.8058 -2.20472 
0.0109375 0.0005625 2.0105 2.52096e+21 1.67644e-05 1.74786 -5.35259 -1.15365 
0.0120312 0.00346875 1.96293 2.63707e+21 1.75365e-05 3.14553 5.49459 -0.845208 
0.0120312 0.00365625 2.10507 2.62202e+21 1.74364e-05 2.34607 0.688454 5.39148 
0.0251562 0.00121875 2.12668 2.63943e+21 1.75522e-05 2.9243 3.60945 -0.203795 
0.0229687 0.00140625 2.07305 2.64898e+21 1.76158e-05 3.6315 -0.041522 0.81932 
0.0273437 0.00084375 2.06521 2.70417e+21 1.79827e-05 3.50027 1.91488 -1.17242 
0.0295312 0.00084375 1.95912 2.5984e+21 1.72793e-05 -0.228114 -4.2995 -1.55399 
0.0273437 0.00103125 1.85475 2.68285e+21 1.7841e-05 1.04877 0.138445 -0.0798406 
0.0295312 0.00103125 2.0702 2.61512e+21 1.73905e-05 0.137491 -2.05274 1.43124 
0.0273437 0.00121875 2.05896 2.58212e+21 1.71711e-05 3.56626 -0.747835 0.512263 
0.0295312 0.00121875 2.03676 2.55665e+21 1.70017e-05 0.970807 -4.24962 -2.14704 
0.0120312 0.00271875 2.21039 2.84297e+21 1.89057e-05 -0.657017 1.94287 -0.225868 
0.0120312 0.00290625 2.1255 2.54959e+21 1.69548e-05 1.37604 4.90592 -1.17407 
0.0120312 0.00459375 2.03836 2.41734e+21 1.60753e-05 -1.90429 2.1663 -0.979356 
0.0120312 0.00478125 2.12895 2.40191e+21 1.59727e-05 0.612928 3.58363 -2.27816 
0.0273437 0.00159375 1.94999 2.6709e+21 1.77615e-05 3.99337 1.02477 4.23955 
0.0295312 0.00159375 1.97083 2.6222e+21 1.74376e-05 4.29587 0.506938 -1.73139 
0.0448437 0.00159375 2.00882 2.62464e+21 1.74538e-05 5.87716 -1.05871 -0.24215 
0.0470312 0.00159375 2.00105 2.54673e+21 1.69357e-05 -0.00657666 -0.0891924 3.92222 
0.00492187 0.000609375 1.79003 1.10799e+22 7.36813e-05 35.6325 -1.7344 -0.473985 
0.00601562 0.000609375 1.87646 8.66014e+21 5.759e-05 48.5483 7.67758 3.61291 
0.00492187 0.000703125 1.8992 1.09491e+22 7.28118e-05 42.5055 -0.453996 0.595329 
0.00601562 0.000703125 1.6648 8.7858e+21 5.84256e-05 48.548 -5.79547 -1.71675 
0.00273437 0.000984375 1.91353 1.19232e+22 7.9289e-05 18.0372 -9.38863 -13.0011 
0.00273437 0.00107813 1.88873 1.69516e+22 0.000112728 15.711 -4.549 -1.81169 
0.00492187 0.000984375 1.91739 1.10059e+22 7.31892e-05 35.0608 -0.152855 -1.09446 
0.00601562 0.000984375 1.79918 8.82995e+21 5.87192e-05 42.9714 3.85839 -5.30742 
0.00492187 0.00107813 1.98686 1.10854e+22 7.37181e-05 27.7205 -1.65023 -1.53116 
0.00601562 0.00107813 1.83699 8.46523e+21 5.62938e-05 44.0918 4.40336 -2.8113 
0.00273437 0.00117188 1.88531 1.41647e+22 9.41953e-05 25.4402 -8.28234 -11.6316 
0.00382812 0.00117188 1.93448 1.35893e+22 9.03688e-05 24.5814 -8.78791 0.79278 
0.00273437 0.00126563 1.88864 1.51027e+22 0.000100433 17.9137 7.61676 8.87308 
0.00273437 0.00135937 2.07242 1.6898e+22 0.000112372 26.424 -3.92177 0.171017 
0.00273437 0.00145312 1.87542 1.67309e+22 0.00011126 22.215 -0.365261 3.94483 
0.00492187 0.00117188 1.94227 1.09403e+22 7.2753e-05 32.8843 1.64742 -1.07242 
0.00601562 0.00117188 1.82026 8.63569e+21 5.74273e-05 37.4926 1.96806 2.62376 
0.00492187 0.00126563 2.00257 1.08167e+22 7.1931e-05 27.6542 1.61687 0.507456 
0.00601562 0.00126563 1.89369 8.35166e+21 5.55385e-05 38.0346 4.65692 -0.34998 
0.00492187 0.00135937 1.95473 1.04932e+22 6.97796e-05 22.8368 -4.0269 -3.86892 
0.00601562 0.00135937 1.84924 8.27808e+21 5.50492e-05 31.4592 5.74118 -3.58808 
0.00492187 0.00145312 1.99252 1.12048e+22 7.45118e-05 22.2956 -1.25831 1.0424 
0.00601562 0.00145312 1.90704 8.18195e+21 5.44099e-05 24.3921 7.31758 0.144056 
0.00710937 0.00304688 2.11021 3.63217e+21 2.41539e-05 -6.69455 7.9653 2.86343 
0.00820312 0.00304688 1.91652 3.76971e+21 2.50686e-05 -3.07437 11.75 0.208787 
0.00710937 0.00314063 1.92461 3.48421e+21 2.317e-05 -2.45834 7.79629 1.18768 
0.00820312 0.00314063 2.03757 3.73625e+21 2.48461e-05 1.20807 13.6209 -1.75072 
0.00710937 0.00323438 1.97478 3.65675e+21 2.43174e-05 0.107816 6.96084 -0.737472 
0.00820312 0.00323438 2.01112 3.56077e+21 2.36791e-05 -9.55965 16.6095 -4.5848 
0.00710937 0.00332813 2.13628 3.34854e+21 2.22678e-05 -0.789598 10.2297 1.82553 
0.00820312 0.00332813 2.00336 3.75428e+21 2.4966e-05 -3.15331 14.3443 0.031403 
0.00710937 0.00342187 2.04872 3.33391e+21 2.21705e-05 1.9187 10.0716 0.5782 
0.00820312 0.00342187 1.93012 3.82379e+21 2.54282e-05 1.60925 11.6462 -5.86203 
0.00710937 0.00351562 2.05465 3.45251e+21 2.29592e-05 -0.64071 10.0143 2.35651 
0.00710937 0.00360937 1.9342 3.50474e+21 2.33066e-05 -0.420817 9.30196 -0.707353 
0.00820312 0.00360937 1.94183 3.82297e+21 2.54227e-05 0.223368 18.4025 -1.29445 
0.00820312 0.00379687 2.0344 3.77726e+21 2.51188e-05 -0.994566 15.1813 1.3601 
0.00710937 0.00398438 2.03154 3.64235e+21 2.42217e-05 -3.03661 8.77196 -3.64394 
0.00820312 0.00398438 2.04016 3.56444e+21 2.37035e-05 -3.09585 13.372 -3.03869 
0.00710937 0.00407813 1.92192 3.52437e+21 2.3437e-05 -0.37175 6.51739 -6.43921 
0.00820312 0.00407813 2.00649 3.5434e+21 2.35636e-05 -1.90762 12.4184 0.899655 
0.00710937 0.00417188 1.98526 3.31123e+21 2.20197e-05 -2.39996 5.71874 -0.0619428 
0.00710937 0.00426563 2.03123 3.45678e+21 2.29876e-05 0.644689 7.87667 -4.63096 
0.00820312 0.00445313 1.9985 3.46808e+21 2.30627e-05 -4.04861 12.5342 3.04552 
0.0136719 0.00435938 2.02722 2.53861e+21 1.68818e-05 1.26918 -0.0603545 0.399164 
0.0147656 0.00435938 1.96891 2.44604e+21 1.62662e-05 -4.74242 0.48503 -0.623322 
0.0136719 0.00445313 1.96036 2.62459e+21 1.74535e-05 -3.07606 2.5224 0.126874 
0.0147656 0.00445313 1.91142 2.53745e+21 1.6874e-05 2.90727 1.3208 -5.6724 
0.0136719 0.00604688 1.97862 2.58738e+21 1.72061e-05 -0.0886184 1.88223 -1.98917 
0.0136719 0.00614063 2.00405 2.65404e+21 1.76494e-05 -4.38787 1.53931 -1.54783 
0.0158594 0.00604688 1.98617 2.73369e+21 1.8179e-05 3.56757 -1.23723 2.238 
0.0169531 0.00614063 2.00533 2.63635e+21 1.75317e-05 2.87994 2.09588 3.68987 
0.0147656 0.00632813 2.07967 2.73483e+21 1.81866e-05 -0.272437 -1.78198 -0.387343 
0.0158594 0.00623438 2.0371 2.65645e+21 1.76654e-05 -0.195383 -0.764338 2.31412 
0.0169531 0.00623438 1.99683 2.43736e+21 1.62085e-05 -0.0116165 1.39545 -1.45345 
0.0169531 0.00632813 2.03615 2.61955e+21 1.742e-05 0.534379 3.24283 -0.396406 
0.0158594 0.00698437 2.02643 2.63343e+21 1.75123e-05 0.171095 -2.01928 -1.28471 
0.0103906 0.00942187 0 0 0 0 0 0 
0.0103906 0.00951562 1.99815 2.88913e+21 1.92127e-05 1.5763 -1.38097 0.543655 
0.0158594 0.0127031 2.08955 2.69951e+21 1.79517e-05 0.743695 1.65378 4.20153 
0.0180469 0.00342187 2.02788 2.46301e+21 1.6379e-05 1.42649 1.04269 -1.25935 
0.0191406 0.00342187 2.12573 2.57641e+21 1.71331e-05 1.58017 -1.9365 1.89342 
0.0180469 0.00351562 2.17774 2.54744e+21 1.69405e-05 0.977091 -2.2828 5.12422 
0.0191406 0.00351562 1.91363 2.41941e+21 1.60891e-05 6.32873 -4.80996 2.29468 
0.0246094 0.00398438 2.01395 2.68794e+21 1.78748e-05 4.04663 -6.13872 -4.81453 
0.0257031 0.00398438 1.90858 2.59834e+21 1.7279e-05 7.52915 0.907257 -4.16813 
0.0246094 0.00407813 1.98435 2.69466e+21 1.79195e-05 4.21684 4.81066 0.266646 
0.0257031 0.00407813 1.99374 2.50436e+21 1.6654e-05 -0.613682 -2.63888 0.514421 
0.0289844 0.00379687 1.92735 2.4405e+21 1.62293e-05 1.7648 -2.05121 2.22689 
0.0300781 0.00379687 1.99545 2.46094e+21 1.63652e-05 3.74544 1.02757 -1.18012 
0.0289844 0.00389062 1.99082 2.68888e+21 1.7881e-05 4.24916 -3.44663 -4.37932 
0.0300781 0.00389062 2.00997 2.43754e+21 1.62097e-05 6.07154 1.54556 6.54939 
0.0289844 0.00417188 2.00871 2.64154e+21 1.75663e-05 -2.08378 -1.05366 -0.717014 
0.0300781 0.00417188 1.9547 2.62294e+21 1.74426e-05 2.18168 -0.00817525 1.87559 
0.0289844 0.00426563 2.00387 2.59804e+21 1.7277e-05 -0.576572 4.14656 -4.47787 
0.0300781 0.00426563 2.04266 2.69629e+21 1.79303e-05 0.641385 -0.27849 -2.73163 
0.0333594 0.00417188 1.95095 2.5969e+21 1.72694e-05 5.45767 -1.31724 -0.657095 
0.0344531 0.00417188 1.98582 2.67131e+21 1.77642e-05 -0.85354 -1.77496 3.80069 
0.0333594 0.00426563 1.91925 2.73995e+21 1.82207e-05 -0.662777 -0.255487 -3.25418 
0.0344531 0.00426563 2.10249 2.60168e+21 1.73012e-05 3.13995 -3.22396 3.98373 
0.0180469 0.00604688 1.9949 2.55144e+21 1.69671e-05 0.363069 -2.66592 1.2158 
0.0180469 0.00614063 2.05515 2.62371e+21 1.74477e-05 0.104178 -0.535839 0.221134 
0.0191406 0.00614063 1.94323 2.77537e+21 1.84562e-05 0.102525 -1.17095 0.990985 
0.0202344 0.00604688 1.86201 2.66182e+21 1.77011e-05 1.83706 -1.01847 -2.48057 
0.0213281 0.00604688 2.08785 2.58738e+21 1.72061e-05 -1.65588 -4.86664 -0.297583 
0.0202344 0.00614063 2.01051 2.59843e+21 1.72796e-05 0.187769 -0.922559 -1.88931 
0.0213281 0.00614063 2.06862 2.61107e+21 1.73636e-05 6.96891 0.565702 -0.342673 
0.0191406 0.00623438 1.98078 2.72367e+21 1.81124e-05 4.64286 0.219273 -1.28317 
0.0246094 0.00604688 2.03012 2.63872e+21 1.75475e-05 5.9452 -1.4271 0.400784 
0.0257031 0.00604688 1.98859 2.63358e+21 1.75133e-05 0.835693 -0.29095 -3.54421 
0.0235156 0.00623438 2.0002 2.64152e+21 1.75661e-05 4.60951 -0.632721 -0.600678 
0.0246094 0.00623438 2.02022 2.62658e+21 1.74667e-05 1.41366 -1.13875 -0.919714 
0.0257031 0.00623438 1.98945 2.66641e+21 1.77316e-05 0.930634 -0.864854 -1.4446 
0.0202344 0.00651563 1.92323 2.64898e+21 1.76158e-05 1.80386 0.810098 2.04767 
0.0246094 0.00651563 1.97627 2.65851e+21 1.76791e-05 -0.547737 -0.176495 -0.247899 
0.0300781 0.00604688 2.01491 2.64898e+21 1.76158e-05 3.82379 0.897354 -2.65065 
0.0289844 0.00614063 1.98127 2.58832e+21 1.72123e-05 4.87481 0.391143 -1.79698 
0.0267969 0.00623438 2.00869 2.70625e+21 1.79965e-05 1.52223 2.93409 -0.221324 
0.0267969 0.00632813 1.99095 2.59993e+21 1.72895e-05 -2.11326 -1.02992 1.96673 
0.0278906 0.00632813 2.09437 2.54106e+21 1.68981e-05 4.39357 -0.926528 0.457535 
0.0289844 0.00623438 1.94207 2.66392e+21 1.77151e-05 1.46288 0.134137 -0.79045 
0.0289844 0.00632813 2.00292 2.5288e+21 1.68165e-05 0.268935 -0.723299 2.86879 
0.0344531 0.00614063 2.00295 2.62876e+21 1.74813e-05 -1.64858 -1.61567 4.99718 
0.0289844 0.00642188 1.95529 2.58614e+21 1.71979e-05 3.6159 -0.876278 -2.52326 
0.0300781 0.00651563 1.96373 2.79906e+21 1.86138e-05 -0.0305419 -3.16939 -2.61788 
0.0267969 0.00660938 1.99092 2.72179e+21 1.80999e-05 4.55581 1.75358 0.33821 
0.0289844 0.00660938 1.9811 2.548e+21 1.69442e-05 -0.183114 -1.31271 -1.70884 
0.0289844 0.00670313 1.98203 2.66982e+21 1.77543e-05 0.691066 1.61621 -1.0982 
0.0322656 0.00642188 2.01537 2.60065e+21 1.72943e-05 0.832235 -0.174087 2.95506 
0.0344531 0.00651563 2.04972 2.487e+21 1.65385e-05 0.885554 -0.403116 -1.3925 
0.0180469 0.00679687 1.97237 2.58504e+21 1.71905e-05 -3.12503 2.23534 -1.94958 
0.0180469 0.00689062 1.98622 2.54086e+21 1.68967e-05 1.12383 -0.0548467 1.08431 
0.0191406 0.00689062 2.0005 2.68728e+21 1.78704e-05 3.10487 1.22305 -0.296453 
0.0202344 0.00689062 1.92172 2.60168e+21 1.73012e-05 3.96058 -4.36149 -0.627248 
0.0202344 0.00707812 2.03033 2.55469e+21 1.69887e-05 2.80292 0.44649 0.0998932 
0.0246094 0.00698437 2.01814 2.61121e+21 1.73645e-05 1.93438 1.4829 -4.14567 
0.0191406 0.00717187 2.00595 2.66846e+21 1.77453e-05 4.8065 -0.255202 0.434235 
0.0180469 0.00735937 2.04058 2.52033e+21 1.67602e-05 0.0696806 0.107689 -1.34739 
0.0224219 0.00726562 2.00322 2.62549e+21 1.74595e-05 5.8713 3.85874 -4.53563 
0.0235156 0.00735937 1.89072 2.56884e+21 1.70828e-05 2.22871 2.44841 -0.688104 
0.0278906 0.00689062 2.03567 2.5251e+21 1.67919e-05 2.80333 -2.36287 -0.244616 
0.0300781 0.00679687 2.01903 2.79057e+21 1.85573e-05 4.31356 2.60505 0.103169 
0.0322656 0.00679687 2.02961 2.61701e+21 1.74031e-05 1.49585 -1.07298 0.904336 
0.0278906 0.00717187 1.96637 2.60354e+21 1.73135e-05 4.50054 -0.369431 -0.286498 
0.0300781 0.00726562 1.99298 2.51867e+21 1.67492e-05 -0.652159 -1.46933 1.83698 
0.0344531 0.00735937 1.93825 2.60469e+21 1.73212e-05 -1.3903 -0.693618 0.49169 
0.0180469 0.0150469 0 0 0 0 0 0 
0.0180469 0.0151406 0 0 0 0 0 0 
0.0180469 0.0154219 0 0 0 0 0 0 
0.0180469 0.0155156 0 0 0 0 0 0 
0.0180469 0.0180469 0 0 0 0 0 0 
0.0180469 0.0181406 0 0 0 0 0 0 
0.0180469 0.0184219 0 0 0 0 0 0 
0.0180469 0.0185156 0 0 0 0 0 0 
0.0180469 0.0187969 0 0 0 0 0 0 
0.0180469 0.0188906 0 0 0 0 0 0 
0.0180469 0.0189844 0 0 0 0 0 0 
0.0180469 0.0190781 0 0 0 0 0 0 
0.0180469 0.0191719 0 0 0 0 0 0 
0.0180469 0.0192656 0 0 0 0 0 0 
0.0180469 0.0210469 0 0 0 0 0 0 
0.0180469 0.0211406 0 0 0 0 0 0 
0.0180469 0.0212344 0 0 0 0 0 0 
0.0180469 0.0213281 0 0 0 0 0 0 
0.0180469 0.0214219 0 0 0 0 0 0 
0.0180469 0.0215156 0 0 0 0 0 0 
0.00710937 0.00192187 1.93607 3.94117e+21 2.62088e-05 12.621 13.1041 2.4746 
0.00820312 0.00192187 1.95514 3.94117e+21 2.62088e-05 5.71225 19.7354 -3.17293 
0.00710937 0.00201563 1.80576 3.73476e+21 2.48362e-05 4.62621 17.5153 -2.9058 
0.00820312 0.00201563 1.9915 4.01968e+21 2.67309e-05 4.73618 15.5976 -0.73249 
0.00710937 0.00267187 1.87766 3.5436e+21 2.35649e-05 5.48574 17.4299 1.43628 
0.00820312 0.00267187 1.98164 4.03738e+21 2.68486e-05 -3.88529 14.2888 1.21677 
0.00710937 0.00276562 1.966 3.59184e+21 2.38858e-05 0.630136 10.7789 -4.15821 
0.00820312 0.00276562 2.08245 3.8444e+21 2.55652e-05 1.3011 13.9007 1.41246 
0.00710937 0.00285937 1.99237 3.32752e+21 2.2128e-05 -0.864292 9.80585 -0.269452 
0.00820312 0.00285937 1.87976 3.65321e+21 2.42939e-05 -1.4972 13.533 0.90356 
0.00710937 0.00295313 1.86557 3.31123e+21 2.20197e-05 0.131355 17.6313 2.07128 
0.00820312 0.00295313 1.91353 3.62659e+21 2.41168e-05 1.70995 9.7652 0.714682 
0.00710937 0.00454687 2.00101 3.37609e+21 2.2451e-05 -1.97066 8.2408 -3.08768 
0.00820312 0.00464062 2.09045 3.60891e+21 2.39992e-05 1.27694 9.41383 3.72032 
0.00710937 0.00520312 2.05748 3.49917e+21 2.32695e-05 1.29922 4.26279 -1.82082 
0.0136719 0.00454687 2.00213 2.72067e+21 1.80925e-05 0.796727 -0.380206 -1.03226 
0.0147656 0.00454687 1.99572 2.78212e+21 1.85011e-05 7.57672 0.572042 2.46492 
0.0136719 0.00464062 1.97983 2.65567e+21 1.76602e-05 -0.826858 -0.448491 -5.33663 
0.0147656 0.00464062 2.08194 2.6724e+21 1.77714e-05 -0.866431 0.266783 -1.24984 
0.0158594 0.00510937 1.98689 2.54874e+21 1.69491e-05 -1.83487 -2.25199 -1.45607 
0.0169531 0.00510937 1.96972 2.79784e+21 1.86056e-05 -0.944668 -2.08223 -3.94077 
0.0158594 0.00520312 2.02999 2.646e+21 1.75959e-05 -4.14214 -0.816649 -0.767034 
0.00820312 0.00529687 1.99496 3.31123e+21 2.20197e-05 -2.59265 12.3238 0.197987 
0.00710937 0.00539062 2.00394 3.41777e+21 2.27281e-05 1.32118 6.8543 0.747434 
0.0136719 0.00529687 2.02263 2.67829e+21 1.78106e-05 -0.177087 -1.64187 1.01763 
0.0136719 0.00539062 1.9684 2.71809e+21 1.80753e-05 -2.33538 4.93554 -0.595593 
0.0147656 0.00539062 2.12002 2.6058e+21 1.73285e-05 2.6686 1.90983 4.15419 
0.0169531 0.00529687 1.93706 2.66071e+21 1.76937e-05 3.55708 -4.34425 3.90661 
0.0158594 0.00539062 1.9261 2.66914e+21 1.77498e-05 1.56455 2.55791 -0.298016 
0.0169531 0.00539062 2.02059 2.59716e+21 1.72711e-05 2.95979 -0.936559 1.06908 
0.0169531 0.00548437 1.97406 2.56408e+21 1.70511e-05 1.19885 0.619206 -1.15539 
0.0158594 0.00557812 1.96544 2.62672e+21 1.74677e-05 0.050318 -0.667625 3.5366 
0.0169531 0.00557812 2.03896 2.61281e+21 1.73752e-05 3.53854 -1.92036 -0.219118 
0.00929687 0.00567187 1.99245 3.07753e+21 2.04656e-05 -0.753704 7.622 3.39948 
0.0103906 0.00567187 0 0 0 0 0 0 
0.00929687 0.00576562 1.96707 3.33703e+21 2.21913e-05 0.0986428 3.94117 -0.960621 
0.0103906 0.00576562 0 0 0 0 0 0 
0.0147656 0.00576562 1.96766 2.73244e+21 1.81707e-05 -2.03841 0.062868 -1.48521 
0.0147656 0.00585938 1.94887 2.65428e+21 1.7651e-05 0.161284 2.10967 -0.413141 
0.0136719 0.00595313 2.0226 2.62552e+21 1.74597e-05 0.3967 -2.01513 -0.254234 
0.0158594 0.00585938 1.9527 2.71521e+21 1.80561e-05 3.17012 -0.043297 4.32176 
0.0169531 0.00585938 1.93492 2.68607e+21 1.78624e-05 -0.439844 0.573528 -0.606232 
0.00929687 0.00773437 2.00221 3.28679e+21 2.18571e-05 0.937245 3.4722 -1.72907 
0.0103906 0.00773437 0 0 0 0 0 0 
0.0103906 0.00782813 0 0 0 0 0 0 
0.0103906 0.00792188 0 0 0 0 0 0 
0.0103906 0.00801563 0 0 0 0 0 0 
0.0103906 0.00810938 0 0 0 0 0 0 
0.0103906 0.00820313 0 0 0 0 0 0 
0.0103906 0.00829688 0 0 0 0 0 0 
0.0103906 0.00839063 0 0 0 0 0 0 
0.0103906 0.00848438 0 0 0 0 0 0 
0.0103906 0.00857813 0 0 0 0 0 0 
0.0224219 0.00473437 2.02147 2.60309e+21 1.73105e-05 2.36833 3.74242 -3.05444 
0.0235156 0.00473437 2.02037 2.70144e+21 1.79646e-05 3.02463 1.57396 1.05696 
0.0224219 0.00482812 1.92099 2.63291e+21 1.75089e-05 1.66117 -0.166309 -4.06631 
0.0235156 0.00482812 1.97521 2.54933e+21 1.6953e-05 0.0507676 1.64581 0.984344 
0.0191406 0.00510937 2.00428 2.42419e+21 1.61208e-05 2.66827 -2.23516 -1.47993 
0.0180469 0.00520312 2.1119 2.52966e+21 1.68222e-05 2.61707 -4.85103 -0.693868 
0.0191406 0.00520312 1.95746 2.56546e+21 1.70603e-05 2.11322 4.61262 3.19213 
0.0246094 0.00492187 1.91621 2.65845e+21 1.76787e-05 2.02012 0.961645 -2.3722 
0.0257031 0.00492187 2.06408 2.52284e+21 1.67769e-05 4.01579 -1.52334 -5.55706 
0.0246094 0.00501562 1.93196 2.56853e+21 1.70807e-05 2.21564 -0.159914 3.42215 
0.0257031 0.00501562 1.94055 2.59638e+21 1.72659e-05 -2.33319 1.65524 2.98318 
0.0235156 0.00510937 1.98316 2.60038e+21 1.72925e-05 2.2644 -0.153189 1.11398 
0.0235156 0.00520312 2.01677 2.64302e+21 1.75761e-05 1.28773 1.36904 4.45619 
0.0267969 0.00454687 2.01433 2.72409e+21 1.81152e-05 1.99708 -2.01827 1.74607 
0.0278906 0.00454687 2.03277 2.7036e+21 1.7979e-05 2.44895 1.49302 1.08827 
0.0267969 0.00464062 2.04228 2.57206e+21 1.71042e-05 2.5597 0.45506 4.40761 
0.0278906 0.00464062 1.97899 2.56202e+21 1.70375e-05 -1.64868 1.00291 1.16997 
0.0289844 0.00492187 1.9618 2.68052e+21 1.78255e-05 -0.439953 -1.13346 1.23594 
0.0300781 0.00492187 2.06232 2.64898e+21 1.76158e-05 3.65419 -1.49858 -2.86447 
0.0289844 0.00501562 2.02131 2.55305e+21 1.69778e-05 0.209415 -1.03606 3.49077 
0.0300781 0.00501562 1.98384 2.584e+21 1.71836e-05 0.755287 -0.763004 2.38927 
0.0289844 0.00510937 1.98703 2.63987e+21 1.75551e-05 0.170735 0.250005 -1.20197 
0.0300781 0.00510937 1.96982 2.59127e+21 1.72319e-05 -0.787983 -0.228241 -1.74775 
0.0289844 0.00520312 2.05512 2.71461e+21 1.80522e-05 -1.69895 -0.219841 -3.22493 
0.0311719 0.00492187 1.88902 2.56069e+21 1.70286e-05 1.86248 -1.03056 0.406149 
0.0322656 0.00492187 1.99563 2.71206e+21 1.80352e-05 1.12795 1.29494 4.49773 
0.0311719 0.00501562 2.0712 2.56234e+21 1.70395e-05 0.843674 -0.859719 2.81853 
0.0322656 0.00501562 1.90512 2.71707e+21 1.80685e-05 -0.921643 -1.85285 -1.7334 
0.0311719 0.00510937 2.02227 2.6824e+21 1.7838e-05 -1.07414 -1.27479 1.33823 
0.0322656 0.00510937 2.02174 2.70063e+21 1.79592e-05 -0.172651 -0.656623 -2.4964 
0.0322656 0.00520312 1.98223 2.36261e+21 1.57113e-05 3.13866 3.33325 1.24276 
0.0202344 0.00548437 1.99049 2.74238e+21 1.82368e-05 1.91352 0.570274 3.91534 
0.0202344 0.00557812 1.9827 2.59055e+21 1.72272e-05 0.767097 1.28739 -0.267132 
0.0213281 0.00557812 1.94725 2.51542e+21 1.67276e-05 3.01511 0.321046 0.433373 
0.0246094 0.00529687 2.00022 2.6021e+21 1.7304e-05 2.72269 -5.10027 3.9512 
0.0257031 0.00529687 2.13098 2.51126e+21 1.66999e-05 3.68431 3.58146 -1.25864 
0.0246094 0.00539062 2.04287 2.577e+21 1.71371e-05 0.576838 1.67818 -0.908257 
0.0257031 0.00539062 1.94803 2.69793e+21 1.79413e-05 0.792145 -1.29404 -2.83775 
0.0180469 0.00567187 2.01013 2.63804e+21 1.7543e-05 1.75418 -2.08617 -2.4721 
0.0191406 0.00567187 2.06253 2.76666e+21 1.83983e-05 -1.85418 -0.912418 1.55071 
0.0191406 0.00576562 1.98107 2.59784e+21 1.72756e-05 3.37543 -2.38814 4.31877 
0.0202344 0.00585938 1.98633 2.56157e+21 1.70344e-05 1.62475 -3.67059 0.0752572 
0.0202344 0.00595313 1.94173 2.57859e+21 1.71476e-05 0.931869 0.795264 0.649163 
0.0213281 0.00595313 1.98322 2.5108e+21 1.66968e-05 0.934736 1.30408 1.98483 
0.0224219 0.00567187 1.92819 2.65446e+21 1.76521e-05 1.219 -0.256166 -2.94043 
0.0235156 0.00567187 2.0316 2.67635e+21 1.77977e-05 0.643597 1.51219 -0.295858 
0.0224219 0.00576562 2.06782 2.49015e+21 1.65595e-05 1.9978 1.2351 -1.76391 
0.0257031 0.00567187 2.13758 2.6052e+21 1.73246e-05 -2.30054 -2.09223 0.805904 
0.0246094 0.00576562 1.95875 2.6086e+21 1.73472e-05 0.569957 2.05814 2.34337 
0.0257031 0.00585938 2.04123 2.56422e+21 1.7052e-05 3.11148 -2.14577 -4.06999 