ITEM: TIMESTEP
500000
ITEM: NUMBER OF CELLS
16070
ITEM: BOX BOUNDS oo ao pp
0 0.12
0 0.03
-0.1 0.1
ITEM: CELLS xc yc f_out[1] f_out[2] f_out[3] f_out[4] f_out[5] f_out[6] 
0.003 0.00225 1.99304 3.7057e+21 2.46429e-05 14.6243 0.387887 -0.917515 
0.003 0.00375 0 0 0 0 0 0 
0.003 0.00525 0 0 0 0 0 0 
0.003 0.00675 0 0 0 0 0 0 
0.003 0.00825 0 0 0 0 0 0 
0.003 0.00975 0 0 0 0 0 0 
0.003 0.01125 0 0 0 0 0 0 
0.003 0.01275 0 0 0 0 0 0 
0.003 0.01425 0 0 0 0 0 0 
0.003 0.01575 0 0 0 0 0 0 
0.003 0.01725 0 0 0 0 0 0 
0.003 0.01875 0 0 0 0 0 0 
0.003 0.02025 0 0 0 0 0 0 
0.003 0.02175 0 0 0 0 0 0 
0.003 0.02325 0 0 0 0 0 0 
0.027 0.02325 0 0 0 0 0 0 
0.003 0.02475 0 0 0 0 0 0 
0.027 0.02475 0 0 0 0 0 0 
0.003 0.02625 0 0 0 0 0 0 
0.027 0.02625 0 0 0 0 0 0 
0.003 0.02775 0 0 0 0 0 0 
0.027 0.02775 0 0 0 0 0 0 
0.003 0.02925 0 0 0 0 0 0 
0.027 0.02925 0 0 0 0 0 0 
0.009 0.01425 0 0 0 0 0 0 
0.009 0.01575 0 0 0 0 0 0 
0.009 0.01725 0 0 0 0 0 0 
0.009 0.01875 0 0 0 0 0 0 
0.009 0.02025 0 0 0 0 0 0 
0.009 0.02175 0 0 0 0 0 0 
0.009 0.02325 0 0 0 0 0 0 
0.009 0.02475 0 0 0 0 0 0 
0.009 0.02625 0 0 0 0 0 0 
0.009 0.02775 0 0 0 0 0 0 
0.009 0.02925 0 0 0 0 0 0 
0.015 0.01425 0 0 0 0 0 0 
0.015 0.01575 0 0 0 0 0 0 
0.015 0.01725 0 0 0 0 0 0 
0.015 0.01875 0 0 0 0 0 0 
0.015 0.02025 0 0 0 0 0 0 
0.015 0.02175 0 0 0 0 0 0 
0.015 0.02325 0 0 0 0 0 0 
0.015 0.02475 0 0 0 0 0 0 
0.015 0.02625 0 0 0 0 0 0 
0.015 0.02775 0 0 0 0 0 0 
0.015 0.02925 0 0 0 0 0 0 
0.021 0.02325 0 0 0 0 0 0 
0.021 0.02475 0 0 0 0 0 0 
0.021 0.02625 0 0 0 0 0 0 
0.021 0.02775 0 0 0 0 0 0 
0.021 0.02925 0 0 0 0 0 0 
0.0015 0.000375 0 0 0 0 0 0 
0.0015 0.001125 0 0 0 0 0 0 
0.0255 0.022125 0 0 0 0 0 0 
0.0285 0.022125 0 0 0 0 0 0 
0.0075 0.000375 1.98809 1.91458e+21 1.27319e-05 29.8173 2.71404 0.194931 
0.0105 0.000375 1.99779 1.63359e+21 1.08634e-05 10.8092 0.976413 3.16166 
0.0105 0.001125 2.12706 1.51614e+21 1.00823e-05 3.26003 13.364 2.43341 
0.0105 0.001875 2.0258 1.53323e+21 1.0196e-05 3.35271 9.15728 2.1735 
0.0075 0.013125 0 0 0 0 0 0 
0.0105 0.013125 0 0 0 0 0 0 
0.0135 0.013125 0 0 0 0 0 0 
0.0165 0.013125 0 0 0 0 0 0 
0.0195 0.022125 0 0 0 0 0 0 
0.0225 0.022125 0 0 0 0 0 0 
0.00375 0.0001875 2.07339 4.37274e+21 2.90787e-05 26.2126 -2.46368 -0.197582 
0.00525 0.0001875 1.90948 3.31985e+21 2.2077e-05 33.1859 -1.83719 6.63826 
0.00375 0.0005625 1.92265 4.10981e+21 2.73302e-05 24.4375 -1.48112 -0.264587 
0.00525 0.0005625 1.86422 3.37519e+21 2.2445e-05 28.9151 -0.672402 -2.51025 
0.00675 0.0009375 1.86757 2.15489e+21 1.433e-05 35.0699 2.05774 0.5441 
0.00825 0.0009375 1.91025 1.65993e+21 1.10385e-05 13.6265 7.26835 -0.716597 
0.00825 0.0013125 1.93092 1.52627e+21 1.01497e-05 14.2116 8.0066 -0.338969 
0.00675 0.0016875 1.95478 1.63172e+21 1.0851e-05 10.9735 12.7298 -2.78493 
0.00675 0.0020625 1.9464 1.27939e+21 8.50795e-06 5.9916 14.1223 1.08635 
0.00825 0.0020625 2.05917 1.41986e+21 9.44204e-06 4.72518 13.8294 -1.91146 
0.00675 0.0024375 1.97505 1.2915e+21 8.5885e-06 5.47466 10.7917 0.361112 
0.00675 0.0028125 1.97522 1.23478e+21 8.21126e-06 0.490034 6.3036 -1.24977 
0.00675 0.0031875 2.06298 1.24234e+21 8.26156e-06 1.35375 3.52542 2.00918 
0.00675 0.0035625 1.99312 1.19859e+21 7.9706e-06 -3.53367 7.33417 1.48378 
0.01275 0.0050625 1.88772 9.03319e+20 6.00707e-06 -1.33774 3.35714 -0.218674 
0.01125 0.0091875 0 0 0 0 0 0 
0.003375 0.00121875 2.0774 4.87531e+21 3.24208e-05 23.1193 -8.84998 2.25746 
0.004125 0.00121875 2.13263 3.90953e+21 2.59984e-05 17.5615 1.37328 -2.34957 
0.003375 0.00140625 1.90823 4.81829e+21 3.20416e-05 14.5036 3.15839 4.62704 
0.004125 0.00140625 1.92873 4.02407e+21 2.676e-05 18.0825 -0.177886 -0.511645 
0.004875 0.00121875 1.95466 3.49165e+21 2.32195e-05 20.6667 3.39399 0.85834 
0.005625 0.00121875 1.76414 3.11091e+21 2.06876e-05 22.9049 -0.955167 -0.0815631 
0.004875 0.00140625 1.98301 3.61361e+21 2.40305e-05 17.6456 -9.55566 -1.98082 
0.005625 0.00140625 2.01327 3.21925e+21 2.1408e-05 21.4659 2.42861 -2.62474 
0.006375 0.0105937 2.10992 1.09772e+21 7.29981e-06 0.77442 0.150322 -2.69371 
0.007125 0.0105937 1.95305 1.06406e+21 7.07602e-06 -0.103218 1.18578 -1.87211 
0.006375 0.0107812 2.01094 9.8021e+20 6.5184e-06 1.92909 0.771267 -2.48699 
0.008625 0.0105937 1.88544 1.03842e+21 6.90551e-06 3.83796 -0.46307 1.52198 
0.006375 0.0113437 2.04384 9.89596e+20 6.58081e-06 -1.50769 1.4077 2.45172 
0.006375 0.0115312 1.96455 9.49581e+20 6.31472e-06 0.687849 -3.9426 -2.14066 
0.007125 0.0115312 2.07563 1.09141e+21 7.25784e-06 0.516973 3.55611 -1.07534 
0.007875 0.0113437 2.0103 9.96705e+20 6.62809e-06 2.67435 3.75177 -2.29415 
0.010875 0.0113437 2.03553 1.0426e+21 6.93328e-06 3.94212 -4.81447 -0.0205056 
0.011625 0.0113437 1.98988 9.5979e+20 6.3826e-06 1.9115 -1.35505 -2.56337 
0.010875 0.0115312 1.91185 9.90313e+20 6.58558e-06 2.06495 2.67315 -1.09125 
0.011625 0.0115312 1.98656 9.73628e+20 6.47462e-06 1.92464 1.00975 0.86782 
0.007875 0.0122813 2.09373 1.02383e+21 6.80849e-06 -2.84688 1.7238 0.112847 
0.012375 0.0105937 2.01216 9.78596e+20 6.50766e-06 2.71923 -1.07036 -3.81544 
0.013125 0.0105937 2.04013 9.79664e+20 6.51477e-06 5.05993 3.02571 1.89333 
0.012375 0.0107812 1.92746 9.72074e+20 6.46429e-06 5.89844 1.75544 2.49422 
0.013125 0.0107812 1.97358 9.60527e+20 6.3875e-06 2.34295 -1.83214 -1.86644 
0.022875 0.0139688 1.92797 9.52812e+20 6.3362e-06 -0.00627787 1.94786 -0.319254 
0.022875 0.0141563 1.95216 8.37858e+20 5.57176e-06 1.38 -2.58038 3.26186 
0.023625 0.0141563 1.96156 8.72236e+20 5.80037e-06 -0.886954 0.559018 -1.24367 
0.023625 0.0177187 2.04483 9.01263e+20 5.9934e-06 1.25731 0.902584 -2.64851 
0.01575 0.0035625 1.98853 9.17328e+20 6.10023e-06 0.0596303 -1.89196 1.93316 
0.01275 0.0054375 1.96488 9.52247e+20 6.33244e-06 2.51332 2.04397 -0.875733 
0.01275 0.0058125 1.96723 9.38273e+20 6.23951e-06 -1.05108 -0.852455 1.02261 
0.01275 0.0061875 1.97703 8.99413e+20 5.9811e-06 0.829283 -0.171183 -1.91138 
0.024375 0.0105937 1.95299 8.83514e+20 5.87537e-06 -0.916862 -2.05115 -2.44831 
0.025125 0.0105937 2.04468 8.86719e+20 5.89668e-06 -3.83679 0.166678 0.819668 
0.024375 0.0107812 1.97292 9.14338e+20 6.08035e-06 -3.79391 2.49387 -2.76019 
0.025125 0.0107812 2.03638 9.21686e+20 6.12921e-06 -0.359198 2.14361 -5.70581 
0.024375 0.0109687 1.97669 9.13153e+20 6.07247e-06 -0.327168 -0.520174 -0.910765 
0.025125 0.0109687 1.9993 8.62595e+20 5.73625e-06 2.66983 2.63261 -0.642713 
0.024375 0.0111562 2.08498 9.08965e+20 6.04462e-06 -0.254068 -2.11132 2.55092 
0.025125 0.0111562 1.96779 8.90705e+20 5.92319e-06 1.18073 1.93589 -1.96967 
0.024375 0.0120938 1.94022 9.32086e+20 6.19837e-06 -3.06221 -0.471741 1.37754 
0.024375 0.0122813 1.92214 9.37208e+20 6.23243e-06 -3.28726 0.990685 -1.66735 
0.025125 0.0122813 1.9595 8.77308e+20 5.8341e-06 1.1266 2.57843 -1.24492 
0.024375 0.0132188 1.89744 9.36666e+20 6.22883e-06 -1.15487 1.20011 3.86178 
0.025125 0.0132188 1.98583 9.20398e+20 6.12065e-06 0.616032 4.20783 -0.285111 
0.025125 0.0134063 1.97892 8.85576e+20 5.88908e-06 0.582154 -2.18551 -0.232553 
0.027375 0.0128438 1.98529 9.34934e+20 6.21731e-06 -0.171751 -1.41075 -2.9541 
0.028125 0.0128438 1.97052 9.06737e+20 6.0298e-06 0.160541 -2.05193 -0.128069 
0.027375 0.0130313 1.99604 9.72724e+20 6.46861e-06 3.58856 -1.95977 -0.987819 
0.026625 0.0145312 1.96346 8.86333e+20 5.89411e-06 -1.93715 0.765237 -1.49494 
0.028875 0.0156563 1.95682 8.79029e+20 5.84555e-06 1.92865 -4.16421 -1.7095 
0.027375 0.0158438 2.0259 9.36488e+20 6.22765e-06 -2.84412 -0.0522566 1.79656 
0.024375 0.0216562 1.93384 1.0622e+21 7.06364e-06 -1.64709 -5.7592 1.29393 
0.025125 0.0216562 2.11434 8.58344e+20 5.70799e-06 -0.209366 -9.77635 -4.69369 
0.007875 0.00534375 2.08908 1.27076e+21 8.45054e-06 3.91735 4.10827 0.514427 
0.008625 0.00534375 2.02405 1.12674e+21 7.49281e-06 2.78193 2.0555 0.0636122 
0.007875 0.00553125 1.88056 1.15811e+21 7.70145e-06 0.385878 5.43574 -0.425623 
0.008625 0.00553125 1.875 1.20313e+21 8.0008e-06 -1.26872 2.33156 -2.44405 
0.006375 0.00684375 1.83675 1.02014e+21 6.78394e-06 0.17463 5.45454 4.26752 
0.007125 0.00684375 2.01761 1.13942e+21 7.57712e-06 0.739639 5.80175 0.899146 
0.006375 0.00703125 2.15958 1.14082e+21 7.58647e-06 3.30578 0.900596 0.28076 
0.007125 0.00703125 1.91729 1.09616e+21 7.28943e-06 -0.231212 3.42485 -2.55278 
0.007875 0.00909375 2.03503 1.11263e+21 7.39901e-06 -2.80496 5.41797 -2.90199 
0.008625 0.00909375 1.9973 1.03672e+21 6.89416e-06 -1.31152 4.3241 -0.810632 
0.007875 0.00928125 2.00171 1.05235e+21 6.99816e-06 -1.09112 -0.756809 -2.041 
0.007875 0.00946875 2.16093 1.07574e+21 7.15367e-06 2.06764 5.51269 -1.08595 
0.008625 0.00946875 2.00246 1.02912e+21 6.84368e-06 -0.927679 2.22545 0.296206 
0.007875 0.00965625 2.00713 1.02203e+21 6.79653e-06 0.276468 3.80558 0.0193328 
0.008625 0.00965625 1.9822 9.78668e+20 6.50814e-06 -0.673315 1.35376 0.90761 
0.007875 0.0102187 1.96775 1.04663e+21 6.96006e-06 3.34454 4.13973 4.23639 
0.008625 0.0102187 1.94183 1.05549e+21 7.01899e-06 -0.365555 1.24621 2.36887 
0.008625 0.0104062 1.88749 1.04408e+21 6.94314e-06 2.70367 3.90178 -1.40984 
0.006375 0.0109687 2.07904 1.02343e+21 6.8058e-06 -2.85157 -1.73191 5.63513 
0.006375 0.0111562 1.98389 1.00242e+21 6.66612e-06 0.67427 1.86508 2.47728 
0.007125 0.0111562 2.09911 1.03476e+21 6.88115e-06 -0.784217 3.99596 -0.390321 
0.009375 0.0105937 1.8941 1.0427e+21 6.93393e-06 4.05495 -0.701443 2.66691 
0.010125 0.0105937 2.00876 1.05445e+21 7.01208e-06 4.5679 1.85631 -1.70116 
0.009375 0.0107812 1.99516 1.03296e+21 6.86919e-06 -0.173027 -0.473444 -2.7095 
0.010125 0.0107812 1.90501 1.03401e+21 6.87617e-06 4.90956 -2.09735 -0.745453 
0.009375 0.0109687 2.06385 1.02665e+21 6.82724e-06 3.60696 1.4444 3.91414 
0.010125 0.0109687 1.98744 9.81253e+20 6.52533e-06 4.74966 0.909668 -3.53812 
0.008625 0.0117188 1.96495 1.01793e+21 6.76922e-06 5.29196 -2.11535 -0.409725 
0.008625 0.0119063 2.03688 1.03897e+21 6.90915e-06 1.99292 2.26185 0.449825 
0.009375 0.0113437 2.07957 1.0416e+21 6.92665e-06 2.52241 4.3719 0.719701 
0.010125 0.0113437 1.98721 1.02364e+21 6.80722e-06 4.92423 -0.429733 0.2006 
0.009375 0.0115312 2.00799 1.03841e+21 6.90539e-06 1.67703 0.032415 0.684873 
0.010125 0.0115312 2.03753 1.03252e+21 6.86623e-06 2.05489 -2.17761 -2.27767 
0.008625 0.0124688 1.86425 1.05473e+21 7.01395e-06 4.13522 -1.74977 -0.407199 
0.007875 0.0126563 1.96891 1.00312e+21 6.67075e-06 -2.79672 -0.408498 5.96005 
0.008625 0.0126563 2.01405 1.07765e+21 7.16638e-06 3.19227 2.76674 1.18524 
0.009375 0.0120938 1.98038 1.05094e+21 6.98873e-06 3.8671 2.60845 0.859029 
0.009375 0.0122813 1.9852 1.03489e+21 6.88203e-06 3.01526 2.67406 3.05148 
0.010875 0.0120938 1.95374 1.00695e+21 6.69623e-06 4.61638 -1.5993 -1.33047 
0.011625 0.0120938 1.96907 9.91043e+20 6.59044e-06 4.1507 -3.23266 -3.83157 
0.013875 0.00984375 1.87959 9.0254e+20 6.00189e-06 6.3924 -0.330013 -1.02985 
0.014625 0.00984375 2.04325 9.23236e+20 6.13952e-06 3.60858 -7.88543 1.58379 
0.013875 0.0100312 1.9917 9.71417e+20 6.45992e-06 1.54409 0.125393 3.76033 
0.014625 0.0100312 1.99868 9.72545e+20 6.46743e-06 3.25439 -1.71089 -0.707988 
0.012375 0.0109687 2.06908 9.66808e+20 6.42927e-06 3.07115 -3.08835 2.01718 
0.012375 0.0111562 2.02759 9.63747e+20 6.40892e-06 1.77729 -5.54544 -0.162528 
0.013875 0.0113437 2.08764 9.74755e+20 6.48212e-06 2.44864 -1.97311 2.51814 
0.014625 0.0113437 2.07396 9.34847e+20 6.21673e-06 2.94353 -4.93109 -0.680392 
0.013875 0.0115312 2.01988 1.02466e+21 6.81402e-06 2.51292 -1.48371 0.137179 
0.014625 0.0115312 1.9496 9.39276e+20 6.24618e-06 3.05006 -4.16949 -1.3155 
0.022875 0.0117188 2.07449 9.35837e+20 6.22331e-06 3.0178 2.37146 -2.22639 
0.023625 0.0117188 2.05097 9.10727e+20 6.05633e-06 -0.224056 0.020726 -0.436552 
0.022875 0.0119063 1.96665 9.67677e+20 6.43505e-06 2.14042 -0.129489 2.20388 
0.023625 0.0119063 2.0011 9.15396e+20 6.08738e-06 -2.71037 -1.651 0.481802 
0.021375 0.0128438 1.97168 9.22598e+20 6.13528e-06 -1.36418 -1.09797 -0.252938 
0.022125 0.0128438 2.00529 9.35816e+20 6.22317e-06 0.96627 -2.81745 2.12309 
0.021375 0.0130313 2.03143 8.97164e+20 5.96614e-06 0.0572374 -0.810832 2.08247 
0.021375 0.0134063 1.97298 9.67464e+20 6.43364e-06 0.293273 -1.37945 1.47437 
0.022125 0.0134063 1.97996 9.185e+20 6.10803e-06 0.0713404 0.502628 0.926495 
0.020625 0.0154687 2.07692 9.06512e+20 6.02831e-06 -3.20793 -3.58241 -2.77671 
0.019875 0.0156563 1.92679 9.15897e+20 6.09071e-06 0.533911 -1.00222 0.734716 
0.023625 0.0165937 2.04781 9.30991e+20 6.19109e-06 -0.458179 1.99285 -1.19944 
0.019875 0.0216562 2.17308 8.58344e+20 5.70799e-06 1.1959 -2.45516 7.31131 
0.020625 0.0216562 1.98334 9.04838e+20 6.01717e-06 3.47286 7.48297 -0.0756494 
0.022875 0.0216562 2.00269 8.33309e+20 5.54151e-06 1.50592 2.3117 1.30859 
0.023625 0.0216562 2.10588 9.01261e+20 5.99339e-06 -4.02605 -3.12055 -1.28748 
0.0255 0.000375 1.95227 9.18619e+20 6.10881e-06 -0.920408 0.232222 -1.52529 
0.0285 0.000375 1.90505 9.4314e+20 6.27188e-06 -2.80137 2.00239 -2.81697 
0.0135 0.000375 1.9208 9.79226e+20 6.51185e-06 -5.07199 -7.28202 2.26732 
0.0165 0.000375 2.05003 9.2805e+20 6.17153e-06 3.06664 0.900032 -0.173757 
0.01275 0.0039375 2.11558 9.13499e+20 6.07477e-06 2.32536 0.0372191 2.08723 
0.01275 0.0043125 1.9688 9.15256e+20 6.08645e-06 -1.39714 2.13785 -1.38201 
0.01725 0.0039375 1.98963 9.45655e+20 6.28861e-06 3.31823 -3.12662 -0.154258 
0.02475 0.0031875 1.99777 9.40034e+20 6.25122e-06 3.87403 -0.485327 0.568183 
0.02475 0.0035625 2.08053 9.18122e+20 6.10551e-06 3.94764 0.82787 1.59758 
0.02625 0.0035625 1.92272 8.72057e+20 5.79918e-06 2.73354 -1.64183 1.93539 
0.01575 0.0024375 1.97783 9.18183e+20 6.10592e-06 1.13212 5.17241 0.433614 
0.01725 0.0028125 1.93715 9.47667e+20 6.30199e-06 2.68999 1.23175 0.290602 
0.003375 0.00084375 1.96952 4.58885e+21 3.05158e-05 16.8618 -1.62685 3.73279 
0.004125 0.00084375 1.88176 4.07772e+21 2.71168e-05 28.7212 0.261117 -6.48228 
0.003375 0.00103125 1.99667 4.43321e+21 2.94809e-05 22.6272 -2.98022 -1.41256 
0.004125 0.00103125 2.01508 3.98383e+21 2.64924e-05 20.6684 -3.61793 -2.09503 
0.025875 0.00984375 2.05627 9.23236e+20 6.13952e-06 -2.03986 -4.09335 1.31112 
0.026625 0.00984375 2.00279 9.24385e+20 6.14716e-06 2.76389 -2.31129 0.881077 
0.025875 0.0100312 1.94233 9.34185e+20 6.21233e-06 2.46387 -3.43742 2.83853 
0.026625 0.0100312 1.94588 9.31928e+20 6.19732e-06 1.66121 3.15996 -0.812992 
0.024375 0.0102187 2.00895 9.28119e+20 6.17199e-06 -0.140171 7.15865 1.10983 
0.025125 0.0102187 1.92815 8.32871e+20 5.53859e-06 0.0163718 0.40307 1.33982 
0.024375 0.0104062 1.99126 8.89645e+20 5.91614e-06 2.61157 0.621325 0.305454 
0.025125 0.0104062 1.99051 8.92908e+20 5.93784e-06 0.704273 -3.11253 1.43644 
0.027375 0.00984375 2.01729 9.00241e+20 5.9866e-06 3.44702 0.491761 -0.0138049 
0.028125 0.00984375 2.0035 9.30134e+20 6.18539e-06 0.791372 -1.30149 2.3453 
0.027375 0.0100312 2.08351 9.34185e+20 6.21233e-06 3.02282 2.2513 2.33361 
0.028125 0.0100312 2.00517 9.36441e+20 6.22734e-06 0.990055 5.20509 -6.00107 
0.025875 0.0105937 2.02409 9.34794e+20 6.21638e-06 -1.28265 1.02231 1.80356 
0.026625 0.0105937 1.96777 9.49751e+20 6.31584e-06 5.04516 -0.788554 3.31278 
0.025875 0.0107812 1.99984 9.0279e+20 6.00356e-06 1.51881 -0.765158 -1.29499 
0.026625 0.0107812 1.96554 9.31134e+20 6.19204e-06 4.77827 0.804548 2.77227 
0.027375 0.0105937 2.06356 9.19837e+20 6.11692e-06 -0.851892 1.54341 -3.35336 
0.028125 0.0105937 2.02222 8.99539e+20 5.98193e-06 -1.24462 0.333491 6.66149 
0.027375 0.0107812 2.00649 9.4898e+20 6.31071e-06 -0.661775 -0.216965 -0.180761 
0.028125 0.0107812 1.99447 9.21686e+20 6.12921e-06 -2.10626 -0.693403 4.67994 
0.028875 0.0105937 1.99348 8.94197e+20 5.94641e-06 4.94678 -3.70325 -1.10063 
0.029625 0.0105937 1.96765 8.84582e+20 5.88247e-06 -0.310559 0.822697 1.31323 
0.028875 0.0107812 1.95657 8.87044e+20 5.89884e-06 3.50821 -2.62079 -0.634025 
0.029625 0.0107812 1.99462 9.0594e+20 6.0245e-06 -0.434111 -0.731871 -2.30378 
0.024375 0.0113437 2.03877 9.28861e+20 6.17692e-06 -5.19099 -0.861383 3.12625 
0.025125 0.0113437 1.94009 9.62783e+20 6.4025e-06 -1.237 0.597731 -1.33589 
0.025125 0.0115312 1.98223 9.43202e+20 6.27229e-06 4.77231 3.06698 2.54596 
0.026625 0.0113437 2.04854 9.05914e+20 6.02433e-06 -0.196959 3.59342 -0.759644 
0.025875 0.0115312 1.91244 9.43202e+20 6.27229e-06 -0.205006 0.91074 -1.26174 
0.024375 0.0117188 2.0137 8.58575e+20 5.70952e-06 1.11471 1.83294 2.46182 
0.025125 0.0117188 1.93561 8.95274e+20 5.95357e-06 0.399139 0.0578602 3.75711 
0.024375 0.0119063 1.96847 8.94483e+20 5.94831e-06 0.948236 -1.77763 1.42877 
0.028875 0.0117188 1.96868 8.85616e+20 5.88935e-06 -0.0490746 -3.62082 -2.20445 
0.028875 0.0119063 2.12498 9.54369e+20 6.34655e-06 -0.471798 0.423687 3.46272 
0.029625 0.0119063 1.97568 9.02088e+20 5.99888e-06 1.81512 0.891268 0.155501 
0.025125 0.0124688 2.00724 8.99515e+20 5.98177e-06 -4.21167 -2.09668 3.59884 
0.024375 0.0126563 2.05561 8.91554e+20 5.92883e-06 3.90307 -1.32532 -1.48253 
0.026625 0.0124688 1.96898 9.16761e+20 6.09646e-06 3.59675 4.03231 2.12831 
0.025875 0.0126563 2.06184 9.55939e+20 6.357e-06 0.358865 -3.58232 1.27363 
0.026625 0.0126563 2.02981 8.46842e+20 5.6315e-06 1.4263 -3.98517 -0.49196 
0.028875 0.0124688 2.06675 9.19484e+20 6.11457e-06 3.59039 2.24601 -0.786007 
0.029625 0.0124688 2.08584 8.96792e+20 5.96367e-06 2.37471 0.631271 1.60624 
0.028875 0.0126563 2.06551 8.71881e+20 5.79801e-06 -1.20858 -1.99771 -3.35451 
0.025875 0.0128438 2.04067 8.82945e+20 5.87158e-06 -0.76178 1.16088 0.135476 
0.026625 0.0128438 1.97374 8.89994e+20 5.91846e-06 1.34097 -1.74837 -2.16813 
0.025875 0.0130313 2.03373 8.80662e+20 5.85641e-06 1.92669 0.554016 -0.424537 
0.027375 0.0132188 2.03975 8.82726e+20 5.87013e-06 2.48523 -2.40994 0.287079 
0.028125 0.0132188 1.94435 9.05843e+20 6.02386e-06 -0.638081 -0.99468 0.344167 
0.024375 0.0135938 1.9262 9.17487e+20 6.10129e-06 0.977869 1.35867 0.382446 
0.024375 0.0137813 2.0327 9.10753e+20 6.05651e-06 -0.615943 0.585747 0.680921 
0.025875 0.0137813 1.97027 8.97613e+20 5.96913e-06 1.35272 1.86918 -3.98099 
0.024375 0.0141563 1.98913 9.64976e+20 6.41709e-06 1.86622 -0.746912 -1.42265 
0.025125 0.0141563 1.9621 9.34596e+20 6.21506e-06 0.290535 -2.21825 0.526578 
0.025875 0.0139688 1.97858 9.0501e+20 6.01831e-06 3.75683 2.20874 0.738629 
0.025875 0.0141563 2.0717 9.00218e+20 5.98645e-06 1.96028 -0.893437 0.16029 
0.029625 0.0135938 1.87488 9.48292e+20 6.30614e-06 3.65068 3.78502 -0.72808 
0.027375 0.0141563 2.03921 9.34596e+20 6.21506e-06 -0.0881375 -2.18678 1.09884 
0.028125 0.0141563 2.0459 8.57046e+20 5.69936e-06 1.10541 -0.0578467 0.550831 
0.025125 0.0143437 2.05865 9.20012e+20 6.11808e-06 0.701388 -0.320454 -0.337538 
0.025125 0.0145312 2.00957 9.33843e+20 6.21006e-06 1.17532 2.60006 0.395584 
0.025125 0.0149062 1.98796 8.73906e+20 5.81147e-06 -1.3278 3.56432 1.88406 
0.026625 0.0150937 2.01096 9.23786e+20 6.14317e-06 -2.92082 0.746553 -0.0122674 
0.025125 0.0154687 1.96805 8.75051e+20 5.81909e-06 2.2316 -1.42797 -0.981951 
0.007875 0.00609375 2.001 1.22765e+21 8.16387e-06 -1.3263 1.39227 -4.39121 
0.008625 0.00609375 2.04451 1.09764e+21 7.29931e-06 -1.39453 2.0833 -3.27487 
0.007875 0.00628125 1.954 1.16217e+21 7.72846e-06 0.527729 4.85807 -3.13451 
0.008625 0.00628125 1.85007 1.15317e+21 7.66855e-06 2.60527 7.13838 3.27546 
0.007875 0.00721875 2.11401 1.10218e+21 7.32947e-06 0.735932 4.65907 -0.184954 
0.008625 0.00721875 1.98782 1.07866e+21 7.17308e-06 -1.32588 1.19881 -0.118325 
0.007875 0.00740625 1.98231 1.10942e+21 7.37764e-06 3.55614 6.49832 -1.08605 
0.008625 0.00740625 1.97613 1.02079e+21 6.78824e-06 -0.452831 6.58994 0.892345 
0.007875 0.00759375 2.06957 1.07308e+21 7.13601e-06 -4.06622 5.83057 2.19298 
0.008625 0.00759375 1.91366 1.21914e+21 8.1073e-06 2.52686 2.62941 -2.65767 
0.007875 0.00778125 1.94162 1.16068e+21 7.7185e-06 -4.84857 1.07807 -1.61604 
0.008625 0.00778125 2.08475 1.05159e+21 6.99307e-06 -0.379834 2.01649 -4.09437 
0.006375 0.00946875 1.9177 1.0354e+21 6.88541e-06 -2.8746 2.53858 -1.84442 
0.007125 0.00946875 1.95829 1.12594e+21 7.48751e-06 1.73973 3.88262 -5.29635 
0.006375 0.00965625 1.94698 1.1032e+21 7.33628e-06 3.50658 -3.15411 0.994243 
0.007125 0.00965625 1.95055 1.02086e+21 6.78874e-06 1.13921 4.03248 -1.27932 
0.006375 0.0102187 1.96263 1.06324e+21 7.07054e-06 -2.90423 1.22883 -3.00772 
0.007125 0.0102187 2.00298 1.09314e+21 7.2694e-06 -0.901377 5.48325 0.419065 
0.006375 0.0104062 2.02537 1.03796e+21 6.90246e-06 -2.16103 2.64668 0.551404 
0.007125 0.0104062 2.0301 1.07562e+21 7.15289e-06 1.88504 3.19086 3.6518 
0.010125 0.0102187 2.05679 1.00343e+21 6.67282e-06 0.721347 1.97143 1.28461 
0.010125 0.0104062 2.01048 1.0691e+21 7.10949e-06 3.81598 -1.63743 3.98523 
0.010875 0.0102187 2.015 9.87927e+20 6.56971e-06 1.82224 1.32312 -1.79312 
0.011625 0.0102187 1.98329 1.00786e+21 6.70228e-06 7.14395 -1.15499 2.28085 
0.011625 0.0104062 1.97133 1.03864e+21 6.90698e-06 2.64638 2.10046 -0.393375 
0.007875 0.0109687 2.01161 1.06173e+21 7.06053e-06 -0.186267 0.281575 0.190667 
0.007875 0.0111562 2.00853 1.01346e+21 6.73948e-06 0.744674 4.56174 3.8949 
0.010875 0.0105937 1.98961 9.80732e+20 6.52187e-06 5.28325 -1.36528 2.27046 
0.011625 0.0105937 2.04122 9.82869e+20 6.53608e-06 1.05694 -2.66127 4.16057 
0.011625 0.0107812 1.98124 1.00252e+21 6.66674e-06 8.16016 1.07401 -1.97904 
0.011625 0.0109687 2.07125 1.01118e+21 6.72432e-06 6.11194 -0.0740164 -2.87453 
0.010875 0.0111562 1.98943 9.71863e+20 6.46289e-06 3.86231 2.09737 0.169991 
0.011625 0.0111562 2.0562 1.0023e+21 6.66527e-06 0.04571 -0.450748 1.95141 
0.006375 0.0117188 2.0314 1.06296e+21 7.06866e-06 -0.342249 -4.79435 2.62972 
0.007125 0.0117188 2.06444 1.03917e+21 6.91051e-06 0.446844 1.89757 -1.9811 
0.006375 0.0119063 1.98786 1.08721e+21 7.22995e-06 0.360178 2.52274 1.06709 
0.009375 0.0117188 1.98944 1.02759e+21 6.83344e-06 2.50888 0.155789 -0.720344 
0.010125 0.0119063 1.98037 1.01901e+21 6.7764e-06 3.04376 -2.32362 -0.63441 
0.010875 0.0117188 1.92999 9.93783e+20 6.60866e-06 6.35465 2.0752 0.125581 
0.006375 0.0120938 1.94334 1.04053e+21 6.91949e-06 -4.59495 1.26827 -1.92762 
0.007125 0.0120938 1.94855 1.07527e+21 7.15053e-06 0.642048 -1.75689 1.49451 
0.006375 0.0122813 2.05015 1.06784e+21 7.10111e-06 -7.36175 -1.62003 1.22768 
0.007125 0.0122813 1.99884 1.00264e+21 6.66754e-06 -1.40498 4.89339 -3.32934 
0.006375 0.0124688 1.93882 1.05348e+21 7.00565e-06 0.165993 1.35486 -1.00001 
0.006375 0.0126563 2.07562 1.04466e+21 6.947e-06 -2.62601 1.25842 1.9214 
0.007125 0.0126563 2.00647 1.09964e+21 7.31264e-06 -0.598295 0.96741 -0.870684 
0.009375 0.0126563 2.04196 1.03489e+21 6.882e-06 -0.592165 -3.17045 2.30992 
0.010125 0.0126563 1.98374 1.02756e+21 6.83325e-06 3.17047 -0.56127 -1.05743 
0.010875 0.0126563 1.94405 1.06055e+21 7.05263e-06 2.93068 -0.469657 2.68495 
0.011625 0.0126563 2.06488 9.82349e+20 6.53262e-06 3.02945 -0.570948 0.558518 
0.013875 0.00909375 1.89721 9.38396e+20 6.24033e-06 0.896294 0.190348 4.45074 
0.014625 0.00909375 1.98427 9.60798e+20 6.3893e-06 -1.02788 -0.623223 -3.13456 
0.013875 0.00928125 1.88613 9.08463e+20 6.04128e-06 5.05732 -1.61391 -0.0917102 
0.014625 0.00928125 2.05553 9.41387e+20 6.26023e-06 4.50325 2.20504 -1.60251 
0.012375 0.00984375 1.94136 9.41631e+20 6.26185e-06 3.96337 -0.0973196 -0.800501 
0.013125 0.00984375 2.02165 9.72674e+20 6.46828e-06 1.95567 -3.46759 -0.45913 
0.012375 0.0100312 1.96469 9.78186e+20 6.50494e-06 2.13836 -1.06498 3.17242 
0.013125 0.0100312 2.051 9.66904e+20 6.42991e-06 4.42693 0.408899 -2.23502 
0.012375 0.0102187 2.04377 1.01894e+21 6.77594e-06 1.40592 0.335553 -0.359087 
0.013125 0.0102187 2.0062 9.58023e+20 6.37085e-06 4.50119 -2.59299 2.07106 
0.013125 0.0104062 1.95331 1.0158e+21 6.7551e-06 3.63543 -1.45508 -1.89744 
0.013875 0.0109687 2.09482 9.28631e+20 6.17539e-06 3.89754 -3.59765 -1.57733 
0.014625 0.0109687 2.07433 9.67839e+20 6.43613e-06 0.836195 -3.58276 -0.0342694 
0.013875 0.0111562 1.95075 9.89109e+20 6.57757e-06 2.23829 -1.43655 -0.839343 
0.014625 0.0111562 1.99875 9.60703e+20 6.38868e-06 0.852104 -0.566709 1.42348 
0.017625 0.0105937 1.93172 9.37999e+20 6.23769e-06 1.80751 -2.0233 1.47391 
0.016875 0.0107812 1.95637 9.11188e+20 6.0594e-06 1.33432 1.5225 -0.69717 
0.017625 0.0107812 1.97743 9.19586e+20 6.11525e-06 0.497906 1.62976 2.8243 
0.012375 0.0113437 2.00986 9.5979e+20 6.3826e-06 2.43406 -2.26422 0.0233859 
0.013125 0.0113437 2.07736 9.66773e+20 6.42904e-06 5.69924 -1.99314 2.5171 
0.012375 0.0115312 1.96936 9.6872e+20 6.44199e-06 3.97759 -0.0944803 0.0776099 
0.013125 0.0115312 1.92971 9.38294e+20 6.23966e-06 2.19056 0.977694 1.62086 
0.013125 0.0117188 2.06632 1.0131e+21 6.73711e-06 5.56462 -1.1761 0.351419 
0.012375 0.0119063 2.02728 9.5532e+20 6.35287e-06 5.0344 3.09932 -1.05094 
0.013875 0.0124688 2.01626 9.31284e+20 6.19304e-06 1.38352 -1.10023 -5.08062 
0.013875 0.0126563 2.08425 9.37142e+20 6.23199e-06 3.94722 4.47802 -1.53002 
0.014625 0.0126563 2.07007 9.72575e+20 6.46762e-06 2.62379 2.97998 0.907778 
0.017625 0.0120938 2.01325 9.21792e+20 6.12992e-06 -1.41848 2.82198 0.316439 
0.017625 0.0122813 1.96696 9.77756e+20 6.50208e-06 3.65859 0.560468 -3.2319 
0.015375 0.0124688 2.00986 9.28561e+20 6.17493e-06 -2.71476 -0.333718 1.42407 
0.015375 0.0126563 1.97404 9.77462e+20 6.50012e-06 0.622757 -2.17736 1.42906 
0.016125 0.0126563 2.08298 9.2248e+20 6.13449e-06 0.892491 1.13406 2.59307 
0.018375 0.00834375 1.97849 9.00667e+20 5.98944e-06 2.42826 -0.987857 3.54133 
0.019125 0.00834375 2.02331 8.80321e+20 5.85413e-06 2.68791 -0.745864 -6.99668 
0.018375 0.00853125 2.15363 8.74239e+20 5.81369e-06 -1.07082 0.150977 1.2766 
0.019125 0.00853125 2.05408 8.75566e+20 5.82251e-06 -0.913503 0.220354 -2.72718 
0.019875 0.00909375 1.93856 9.22216e+20 6.13274e-06 -1.28265 -0.0518514 2.36922 
0.020625 0.00909375 1.88299 8.94836e+20 5.95066e-06 1.40431 3.19778 1.59062 
0.019875 0.00928125 1.85714 8.82856e+20 5.87099e-06 0.413121 1.45643 -1.35058 
0.020625 0.00928125 2.02205 8.76759e+20 5.83044e-06 0.818223 3.06276 0.0351319 
0.021375 0.00909375 2.10697 9.37151e+20 6.23205e-06 2.54073 2.52294 1.31314 
0.022125 0.00909375 2.02316 9.32173e+20 6.19895e-06 -1.09249 -0.691812 1.46592 
0.021375 0.00928125 2.05058 8.5359e+20 5.67637e-06 0.145769 2.71282 0.594764 
0.022125 0.00928125 1.91659 9.20657e+20 6.12237e-06 4.11137 -2.1036 -0.097403 
0.021375 0.0102187 1.98287 9.53593e+20 6.34139e-06 1.83439 3.93047 1.20254 
0.022125 0.0102187 1.91745 8.58344e+20 5.70799e-06 3.35951 5.01062 -1.55201 
0.021375 0.0104062 2.00347 9.08134e+20 6.03909e-06 -1.31442 -1.39656 1.21602 
0.022125 0.0104062 2.09139 8.75506e+20 5.82212e-06 2.97821 1.26581 0.459354 
0.018375 0.0117188 2.1478 9.55152e+20 6.35176e-06 -1.36126 -0.858029 -0.134261 
0.019125 0.0117188 1.95085 8.79822e+20 5.85081e-06 -3.55522 -0.694991 -0.410495 
0.018375 0.0119063 1.95268 9.13495e+20 6.07474e-06 -1.16646 1.67333 1.00702 
0.019125 0.0119063 1.92206 1.00095e+21 6.6563e-06 1.47782 1.07999 2.16476 
0.019875 0.0117188 1.98541 9.11692e+20 6.06275e-06 2.12252 -0.816493 -1.25533 
0.020625 0.0117188 1.9984 8.94308e+20 5.94715e-06 0.841422 -2.59138 2.63939 
0.019875 0.0119063 2.01706 8.95434e+20 5.95464e-06 1.68317 -1.19628 1.59019 
0.021375 0.0117188 2.0426 9.23282e+20 6.13982e-06 4.69242 4.32757 0.894609 
0.022125 0.0117188 2.01814 9.10727e+20 6.05633e-06 -0.0685073 -1.46121 0.198358 
0.021375 0.0119063 1.9571 9.30605e+20 6.18852e-06 0.085078 -1.05948 5.49597 
0.018375 0.0120938 2.01514 9.33022e+20 6.20459e-06 0.94636 1.43246 -3.18069 
0.019125 0.0120938 1.93671 8.99332e+20 5.98056e-06 2.54207 -3.861 0.406268 
0.019125 0.0122813 1.89343 9.26149e+20 6.15889e-06 3.21334 -0.713903 0.7155 
0.019875 0.0122813 2.06071 9.42737e+20 6.2692e-06 2.18631 2.24233 2.03682 
0.020625 0.0122813 1.91313 9.16934e+20 6.09761e-06 -0.778711 -0.016734 0.648036 
0.019875 0.0124688 2.04292 9.24022e+20 6.14475e-06 0.881228 -0.878535 0.804061 
0.020625 0.0124688 2.05742 8.78638e+20 5.84294e-06 1.25151 0.486504 2.0686 
0.019875 0.0126563 1.97799 8.65621e+20 5.75638e-06 2.31594 0.416828 2.33549 
0.020625 0.0126563 2.00049 9.2017e+20 6.11913e-06 5.53495 2.52199 3.37437 
0.022125 0.0120938 2.01666 8.9746e+20 5.96811e-06 4.40157 1.40143 -1.68891 
0.021375 0.0122813 2.01903 9.61168e+20 6.39177e-06 2.24512 -1.75501 -4.38187 
0.022875 0.0120938 1.99344 8.9746e+20 5.96811e-06 5.22612 -1.01228 -2.66276 
0.023625 0.0120938 2.02914 9.36765e+20 6.22949e-06 -2.6741 -2.3408 1.005 
0.022125 0.0124688 2.00191 9.11315e+20 6.06024e-06 -1.21175 1.08095 -2.18249 
0.021375 0.0126563 1.93114 9.0765e+20 6.03588e-06 0.420667 -1.3394 -0.501079 
0.022125 0.0126563 1.9358 8.74564e+20 5.81585e-06 -2.31092 0.749901 3.67625 
0.019875 0.0132188 2.02681 9.16117e+20 6.09218e-06 -0.814421 1.9746 -2.67825 
0.020625 0.0132188 2.00304 9.04987e+20 6.01816e-06 -1.19365 -0.746691 0.529589 
0.019875 0.0134063 2.03573 8.96551e+20 5.96206e-06 -3.3813 4.00666 -4.30123 
0.022875 0.0128438 2.05529 8.92638e+20 5.93604e-06 -0.933634 0.357777 -0.0721632 
0.022875 0.0130313 1.94982 8.95427e+20 5.95459e-06 -1.85791 -0.865254 3.44851 
0.022875 0.0132188 2.02409 8.98993e+20 5.97831e-06 -1.92623 -1.3664 0.240434 
0.019875 0.0137813 2.07758 9.27999e+20 6.17119e-06 0.818315 -1.97489 -2.07867 
0.019875 0.0139688 1.95877 8.87185e+20 5.89978e-06 -0.665554 0.246681 -1.53572 
0.022875 0.0135938 2.05071 8.9584e+20 5.95734e-06 1.90171 -0.844129 -1.57484 
0.019875 0.0147187 1.92356 9.09644e+20 6.04913e-06 -3.46693 -1.31755 0.343084 
0.023625 0.0147187 2.05884 8.77349e+20 5.83437e-06 -4.17389 -3.08185 0.650847 
0.022125 0.0160313 1.95996 8.90236e+20 5.92007e-06 2.88699 0.743033 0.544593 
0.022875 0.0162188 2.05082 8.83434e+20 5.87483e-06 -0.797397 -1.648 -1.63367 
0.020625 0.0165937 1.98025 8.98935e+20 5.97792e-06 -0.652949 -1.28019 -3.27432 
0.021375 0.0216562 2.15421 9.7279e+20 6.46905e-06 -4.02026 -11.0545 -0.574406 
0.022125 0.0216562 1.86418 8.90532e+20 5.92204e-06 -1.73509 -7.92464 0.416918 
0.02475 0.0024375 2.03795 9.61133e+20 6.39153e-06 5.73323 -0.742144 -0.638148 
0.02625 0.0024375 2.00575 8.62466e+20 5.7354e-06 3.82779 -3.86854 2.61696 