ITEM: TIMESTEP
500000
ITEM: NUMBER OF CELLS
35084
ITEM: BOX BOUNDS oo ao pp
0 0.35
0 0.03
-0.1 0.1
ITEM: CELLS xc yc f_out[1] f_out[2] f_out[3] f_out[4] f_out[5] f_out[6] 
0.00875 0.01575 0 0 0 0 0 0 
0.00875 0.01875 0 0 0 0 0 0 
0.00875 0.02175 0 0 0 0 0 0 
0.00875 0.02475 0 0 0 0 0 0 
0.00875 0.02775 0 0 0 0 0 0 
0.02625 0.02475 0 0 0 0 0 0 
0.02625 0.02775 0 0 0 0 0 0 
0.00875 0.01425 0 0 0 0 0 0 
0.00875 0.01725 0 0 0 0 0 0 
0.00875 0.02025 0 0 0 0 0 0 
0.00875 0.02325 0 0 0 0 0 0 
0.00875 0.02625 3.54753e-17 2.30973e+15 1.53597e-11 -31.516 0.00318648 -2.75873 
0.00875 0.02925 0 0 0 0 0 0 
0.02625 0.02325 0 0 0 0 0 0 
0.02625 0.02625 0 0 0 0 0 0 
0.02625 0.02925 0 0 0 0 0 0 
0.04375 0.02325 0 0 0 0 0 0 
0.04375 0.02625 3.54753e-17 2.30973e+15 1.53597e-11 -31.516 -0.283443 -2.74414 
0.04375 0.02925 0.155733 3.31654e+16 2.2055e-10 -92.0765 20.1881 3.65072 
0.004375 0.013125 0 0 0 0 0 0 
0.013125 0.013125 0 0 0 0 0 0 
0.021875 0.022125 0 0 0 0 0 0 
0.030625 0.022125 0 0 0 0 0 0 
0.0021875 0.0001875 1.96283 1.29561e+22 8.61584e-05 29.9242 3.20974 -0.736577 
0.0021875 0.0031875 0 0 0 0 0 0 
0.0021875 0.0035625 0 0 0 0 0 0 
0.0021875 0.0039375 0 0 0 0 0 0 
0.0021875 0.0043125 0 0 0 0 0 0 
0.0021875 0.0061875 0 0 0 0 0 0 
0.0021875 0.0065625 0 0 0 0 0 0 
0.0021875 0.0069375 0 0 0 0 0 0 
0.0021875 0.0073125 0 0 0 0 0 0 
0.0021875 0.0091875 0 0 0 0 0 0 
0.0021875 0.0095625 0 0 0 0 0 0 
0.0021875 0.0099375 0 0 0 0 0 0 
0.0021875 0.0103125 0 0 0 0 0 0 
0.0021875 0.0121875 0 0 0 0 0 0 
0.0021875 0.0125625 0 0 0 0 0 0 
0.0021875 0.0020625 0 0 0 0 0 0 
0.0021875 0.0024375 0 0 0 0 0 0 
0.0021875 0.0028125 0 0 0 0 0 0 
0.0021875 0.0046875 0 0 0 0 0 0 
0.0021875 0.0050625 0 0 0 0 0 0 
0.0021875 0.0054375 0 0 0 0 0 0 
0.0021875 0.0058125 0 0 0 0 0 0 
0.0021875 0.0076875 0 0 0 0 0 0 
0.0021875 0.0080625 0 0 0 0 0 0 
0.0021875 0.0084375 0 0 0 0 0 0 
0.0021875 0.0088125 0 0 0 0 0 0 
0.0021875 0.0106875 0 0 0 0 0 0 
0.0021875 0.0110625 0 0 0 0 0 0 
0.0021875 0.0114375 0 0 0 0 0 0 
0.0021875 0.0118125 0 0 0 0 0 0 
0.0196875 0.0001875 1.93397 2.51964e+21 1.67556e-05 -2.41722 2.05052 -0.929412 
0.0240625 0.0001875 2.0239 2.50929e+21 1.66868e-05 2.54502 -4.76493 -0.339137 
0.00546875 9.375e-05 1.6427 9.60257e+21 6.38571e-05 44.7661 6.86735 -4.26512 
0.00765625 9.375e-05 1.75665 6.00161e+21 3.99107e-05 48.9422 8.33202 1.58545 
0.00546875 0.00028125 1.86366 9.76813e+21 6.49581e-05 50.5266 1.75908 -2.99159 
0.00765625 0.00028125 1.669 5.11861e+21 3.40388e-05 49.2929 2.47713 -1.34843 
0.00109375 0.00046875 0 0 0 0 0 0 
0.00328125 0.00046875 1.90908 1.27288e+22 8.46468e-05 29.8059 -0.13117 -0.159495 
0.00109375 0.00065625 0 0 0 0 0 0 
0.00765625 0.00046875 1.73738 5.18208e+21 3.44608e-05 50.7584 7.92678 -2.09735 
0.00765625 0.00065625 1.87888 5.4044e+21 3.59393e-05 45.6457 9.29532 0.00268452 
0.00109375 0.00084375 0 0 0 0 0 0 
0.00109375 0.00103125 0 0 0 0 0 0 
0.00109375 0.00121875 0 0 0 0 0 0 
0.00109375 0.00140625 0 0 0 0 0 0 
0.00546875 0.00309375 1.98206 3.20204e+21 2.12935e-05 2.19357 9.61662 0.698018 
0.00546875 0.00328125 2.01314 2.83646e+21 1.88625e-05 -12.0347 1.12824 3.69467 
0.00546875 0.00346875 1.80605 2.98254e+21 1.98339e-05 -1.37934 6.20973 4.27437 
0.00546875 0.00365625 2.08321 3.25567e+21 2.16502e-05 3.56438 -1.12715 -1.24229 
0.0120312 0.00346875 2.06349 2.34918e+21 1.56221e-05 1.469 -4.31499 4.04677 
0.0120312 0.00365625 2.00665 2.31611e+21 1.54022e-05 -1.51872 1.48407 0.0281172 
0.00546875 0.00384375 1.99601 3.01372e+21 2.00412e-05 3.76685 3.06246 -0.506764 
0.00546875 0.00403125 1.87199 3.15099e+21 2.09541e-05 -0.174506 2.34104 3.84269 
0.00546875 0.00421875 2.13809 3.05829e+21 2.03376e-05 -0.948983 3.70781 -1.67476 
0.00546875 0.00440625 2.08282 3.15479e+21 2.09793e-05 -0.772051 -0.545023 -0.640481 
0.0120312 0.00421875 2.00673 2.3955e+21 1.59301e-05 0.43131 5.33085 2.5576 
0.0120312 0.00440625 2.0348 2.49301e+21 1.65785e-05 2.94231 0.728024 -1.8988 
0.00546875 0.00609375 1.93665 3.23163e+21 2.14904e-05 1.85772 3.67127 -2.69209 
0.00546875 0.00628125 1.89636 3.13517e+21 2.08489e-05 4.15029 3.06972 -3.63427 
0.00546875 0.00646875 1.97727 3.08134e+21 2.04909e-05 -1.01729 2.79071 -3.62524 
0.00546875 0.00665625 1.92466 3.33061e+21 2.21485e-05 -2.15325 6.46327 -5.84399 
0.0120312 0.00609375 1.92846 2.58924e+21 1.72184e-05 -1.17256 -0.206921 0.0482092 
0.0120312 0.00628125 1.95917 2.40384e+21 1.59855e-05 1.23489 0.780481 -1.59989 
0.0120312 0.00646875 2.16946 2.35886e+21 1.56864e-05 0.93429 -3.05664 1.78678 
0.0120312 0.00665625 1.95799 2.47545e+21 1.64617e-05 -2.21243 0.756043 0.690352 
0.00546875 0.00684375 2.01673 2.81328e+21 1.87083e-05 -3.72974 6.69146 -4.44201 
0.00546875 0.00703125 2.10173 2.9655e+21 1.97206e-05 2.89034 6.52298 0.204724 
0.00546875 0.00721875 2.06329 2.96041e+21 1.96867e-05 -1.30139 4.98182 4.14435 
0.00546875 0.00740625 2.09052 2.86928e+21 1.90807e-05 0.0386542 -1.00593 1.05589 
0.0120312 0.00684375 1.9765 2.55355e+21 1.69811e-05 0.499481 -1.96327 0.210636 
0.0120312 0.00703125 2.00124 2.22981e+21 1.48282e-05 -3.46732 -4.84419 -0.158076 
0.0120312 0.00721875 1.93888 2.31023e+21 1.5363e-05 3.35682 -2.50018 -0.930966 
0.0120312 0.00740625 1.96828 2.38388e+21 1.58528e-05 -1.0186 0.24939 1.31092 
0.00546875 0.00909375 1.99179 2.94301e+21 1.9571e-05 -2.8194 2.33521 1.1692 
0.00546875 0.00928125 1.98973 2.94811e+21 1.96049e-05 1.25748 0.374377 1.28403 
0.00546875 0.00946875 2.05081 2.76318e+21 1.83751e-05 -0.809326 1.16088 1.13148 
0.00546875 0.00965625 2.00071 3.03632e+21 2.01915e-05 0.034742 5.02857 -1.8622 
0.0120312 0.00909375 1.95122 2.46203e+21 1.63725e-05 0.0496908 -1.00432 -0.477705 
0.00546875 0.00984375 2.04422 2.66603e+21 1.77291e-05 0.0447026 -1.81509 1.97544 
0.00546875 0.0100312 2.01093 2.91087e+21 1.93573e-05 0.698097 2.07782 0.979337 
0.00546875 0.0102187 2.11038 2.88091e+21 1.9158e-05 0.869975 5.47741 2.73253 
0.00546875 0.0104062 1.98532 2.90961e+21 1.93489e-05 -2.07028 2.58034 -1.88318 
0.00546875 0.0120938 2.04676 2.72491e+21 1.81207e-05 -4.29896 3.80582 1.73121 
0.00546875 0.0122813 2.0492 2.8004e+21 1.86227e-05 -4.77713 -2.52135 -3.04398 
0.00546875 0.0124688 1.94655 2.82557e+21 1.879e-05 0.645566 0.834354 -3.84512 
0.00546875 0.0126563 1.9386 2.85476e+21 1.89842e-05 0.61777 0.915232 -0.449657 
0.0185937 0.0216562 2.00575 2.46984e+21 1.64245e-05 -2.52505 0.0485739 -3.40666 
0.00546875 0.00178125 1.85203 2.55647e+21 1.70005e-05 11.1793 11.9482 1.74625 
0.00546875 0.00196875 1.74044 2.39415e+21 1.59211e-05 16.315 2.027 6.02695 
0.00546875 0.00215625 1.76786 3.05664e+21 2.03267e-05 4.15597 11.9145 6.55518 
0.00546875 0.00234375 1.83891 2.99959e+21 1.99472e-05 -6.71779 -1.22317 4.19432 
0.00546875 0.00253125 1.94725 3.17191e+21 2.10932e-05 -1.85006 5.13629 -1.80411 
0.00546875 0.00271875 1.78917 3.43801e+21 2.28627e-05 -2.23182 9.07043 4.57981 
0.00546875 0.00290625 1.93423 3.06501e+21 2.03823e-05 -3.40504 -2.04809 -5.15695 
0.00546875 0.00459375 1.94333 3.0695e+21 2.04122e-05 1.59214 0.453204 0.852589 
0.00546875 0.00478125 2.21901 3.22482e+21 2.14451e-05 -2.37136 1.09198 2.57049 
0.00546875 0.00496875 1.92099 3.33627e+21 2.21862e-05 -1.18472 3.99581 -1.34745 
0.00546875 0.00515625 1.96473 3.3234e+21 2.21006e-05 3.14335 3.52432 4.93908 
0.0120312 0.00459375 2.01552 2.39125e+21 1.59018e-05 1.36899 -0.0748215 -3.84408 
0.0120312 0.00478125 2.095 2.49798e+21 1.66116e-05 -1.34013 -1.25952 -0.11584 
0.0120312 0.00496875 1.94779 2.4198e+21 1.60917e-05 2.5332 -5.27271 0.54811 
0.0120312 0.00515625 1.86425 2.42477e+21 1.61247e-05 1.90832 -0.755922 1.65504 
0.00546875 0.00534375 2.00183 3.25164e+21 2.16234e-05 -1.66478 -0.140359 3.69128 
0.00546875 0.00553125 2.01625 3.19919e+21 2.12746e-05 -3.53973 8.16398 2.21698 
0.00546875 0.00571875 2.03901 3.15018e+21 2.09487e-05 1.13871 -1.75758 0.144737 
0.00546875 0.00590625 2.01362 3.07723e+21 2.04636e-05 3.66488 6.87074 -0.687801 
0.0120312 0.00534375 1.94622 2.35464e+21 1.56583e-05 1.5522 -3.35246 6.15643 
0.0120312 0.00553125 1.91364 2.38315e+21 1.58479e-05 -3.1433 -0.586033 2.193 
0.0120312 0.00571875 1.98857 2.65425e+21 1.76508e-05 -0.143738 1.03515 4.36692 
0.0120312 0.00590625 2.00487 2.36033e+21 1.56962e-05 -0.214376 5.9899 3.52253 
0.00546875 0.00759375 2.02564 3.01936e+21 2.00788e-05 4.53963 1.60828 0.249864 
0.00546875 0.00778125 1.98868 3.04928e+21 2.02777e-05 -1.74115 5.87268 0.239237 
0.00546875 0.00796875 1.87476 2.93242e+21 1.95006e-05 0.28113 3.75366 3.84852 
0.00546875 0.00815625 2.00348 3.04131e+21 2.02247e-05 1.36789 -0.0553004 1.30275 
0.0120312 0.00778125 1.92235 2.29209e+21 1.52424e-05 1.04531 -0.227036 3.1117 
0.0120312 0.00796875 1.93394 2.44619e+21 1.62671e-05 0.96374 -0.493117 -0.557522 
0.0120312 0.00815625 1.99753 2.39485e+21 1.59258e-05 -1.04543 1.4299 -3.54169 
0.00546875 0.00834375 2.12968 3.11659e+21 2.07253e-05 0.797877 0.876059 -0.50673 
0.00546875 0.00853125 2.03692 3.10428e+21 2.06435e-05 -2.76198 0.624563 0.152859 
0.00546875 0.00871875 2.02917 2.9184e+21 1.94074e-05 0.247547 5.63538 -1.43205 
0.00546875 0.00890625 2.01696 2.85696e+21 1.89988e-05 1.80601 2.83747 2.26288 
0.0120312 0.00834375 1.98223 2.38173e+21 1.58385e-05 1.232 -1.80725 -3.18294 
0.00546875 0.0105937 1.96179 2.7186e+21 1.80787e-05 -0.5069 6.72927 1.75153 
0.00546875 0.0109687 2.05418 2.85508e+21 1.89863e-05 -1.89659 2.22692 2.33137 
0.00546875 0.0115312 1.97713 2.87862e+21 1.91428e-05 -0.0221957 -0.594267 0.594154 
0.00546875 0.0117188 2.01243 2.87347e+21 1.91086e-05 -3.05653 -1.70103 -1.30557 
0.00546875 0.0119063 2.04373 3.04629e+21 2.02578e-05 -1.00343 2.22201 -0.736947 
0.0229687 0.00159375 2.0143 2.42012e+21 1.60938e-05 1.02397 1.89433 0.541252 
0.0251562 0.00159375 2.00053 2.53942e+21 1.68872e-05 2.38171 -0.734259 -1.25576 
0.0251562 0.00178125 2.06787 2.56403e+21 1.70508e-05 2.4598 -0.368216 1.8397 
0.0109375 0.0001875 2.1153 5.68786e+21 3.78243e-05 8.508 1.54304 -6.32197 
0.0109375 0.0001875 1.86617 3.08906e+21 2.05423e-05 -4.01314 4.7383 -11.5253 
0.0153125 0.0001875 2.11485 2.4679e+21 1.64115e-05 3.76212 3.53473 0.495752 
0.0109375 0.0005625 1.93487 5.15583e+21 3.42863e-05 9.55022 8.10855 -1.46961 
0.0109375 0.0005625 2.13757 2.25466e+21 1.49935e-05 -0.119699 -4.53629 5.87892 
0.0142187 0.00121875 1.99321 2.43567e+21 1.61972e-05 -2.57155 2.51362 -2.20551 
0.0164062 0.00121875 2.01752 2.69038e+21 1.7891e-05 1.71096 -0.489158 2.52359 
0.0120312 0.00384375 1.93265 2.32784e+21 1.54801e-05 -2.35623 -0.185957 1.86506 
0.0120312 0.00403125 1.96537 2.63574e+21 1.75276e-05 1.96574 1.94442 1.82238 
0.0229687 0.00121875 1.93642 2.37836e+21 1.58161e-05 0.225882 0.90902 2.37853 
0.0251562 0.00121875 2.00598 2.43567e+21 1.61972e-05 2.86565 -0.274068 0.509209 
0.0229687 0.00140625 1.94752 2.33442e+21 1.55239e-05 0.518891 2.52278 -0.933137 
0.0251562 0.00140625 1.90765 2.21852e+21 1.47532e-05 6.43066 2.00463 1.90161 
0.0142187 0.00159375 1.93805 2.33004e+21 1.54947e-05 0.265928 0.186685 0.171156 
0.0164062 0.00159375 2.06871 2.47612e+21 1.64662e-05 1.49711 -1.57234 2.7841 
0.00984375 0.00234375 1.96351 4.02561e+21 2.67703e-05 2.93065 17.5978 5.60072 
0.0120312 0.00234375 1.93681 2.30082e+21 1.53004e-05 -0.321159 -1.39099 -2.64567 
0.00984375 0.00253125 2.03385 3.8435e+21 2.55593e-05 -5.44463 16.9283 3.90899 
0.0120312 0.00253125 1.84375 2.55647e+21 1.70005e-05 5.39159 5.47558 2.36397 
0.0185937 0.00159375 1.90034 2.50047e+21 1.66281e-05 1.46444 -2.57382 2.40834 
0.0207812 0.00159375 2.07104 2.53942e+21 1.68872e-05 1.84893 3.01586 -0.0510762 
0.0207812 0.00178125 2.00588 2.47689e+21 1.64713e-05 0.854468 2.56639 2.77961 
0.0339062 0.00159375 2.0547 2.39821e+21 1.59481e-05 2.34014 1.01428 1.48984 
0.00273437 0.000796875 2.11285 1.22037e+22 8.11546e-05 22.7994 -3.99119 -2.28968 
0.00382812 0.000796875 1.91565 1.33423e+22 8.87264e-05 27.182 -0.427431 -1.30886 
0.00273437 0.000890625 2.15414 1.41195e+22 9.38949e-05 16.1281 -5.75728 6.90059 
0.00382812 0.000890625 1.85881 1.30009e+22 8.64562e-05 30.9169 -0.222191 -0.831145 
0.00492187 0.000796875 1.82863 1.09855e+22 7.30536e-05 36.8374 0.804184 2.9365 
0.00601562 0.000796875 1.95281 8.4339e+21 5.60854e-05 50.0997 6.34579 0.314563 
0.00492187 0.000890625 1.89073 1.1293e+22 7.50987e-05 39.5966 1.68426 -0.78345 
0.00601562 0.000890625 1.9754 8.31293e+21 5.5281e-05 40.4677 1.15913 0.477253 
0.00492187 0.000984375 1.94815 9.77602e+21 6.50105e-05 34.5611 -1.12052 0.103226 
0.00601562 0.000984375 1.84535 7.93119e+21 5.27424e-05 43.7236 6.3811 -0.616385 
0.00492187 0.00107813 1.87841 1.15173e+22 7.65902e-05 35.1307 1.46567 -1.39706 
0.00601562 0.00107813 1.71758 8.52282e+21 5.66768e-05 39.1688 5.9124 1.25578 
0.00273437 0.00117188 1.71025 1.54524e+22 0.000102759 30.8497 -14.9162 0.856388 
0.00273437 0.00126563 1.80531 1.51027e+22 0.000100433 18.1635 -8.42748 7.66754 
0.00273437 0.00135937 1.92845 1.59112e+22 0.00010581 17.703 -1.05213 5.28558 
0.00273437 0.00145312 2.05641 1.75386e+22 0.000116632 17.1466 -6.78264 5.13572 
0.00492187 0.00117188 1.90955 1.06092e+22 7.05511e-05 29.7383 2.97974 -1.31201 
0.00601562 0.00117188 1.88305 7.86749e+21 5.23188e-05 40.7293 2.49623 -1.19261 
0.00492187 0.00126563 2.00415 1.09271e+22 7.2665e-05 26.048 2.42011 2.69964 
0.00601562 0.00126563 1.82606 7.78753e+21 5.1787e-05 35.7905 4.41762 -1.52841 
0.00601562 0.00135937 1.9535 7.74143e+21 5.14805e-05 30.7963 5.30951 -1.91883 
0.00601562 0.00145312 1.81595 7.81878e+21 5.19949e-05 26.6964 5.20844 4.2026 
0.00710937 0.00135937 1.72675 4.65856e+21 3.09794e-05 42.3603 21.1562 -1.49052 
0.00820312 0.00135937 2.04861 4.14475e+21 2.75626e-05 19.5689 10.7722 -1.71859 
0.00710937 0.00145312 1.85996 4.19779e+21 2.79153e-05 30.6063 15.1826 -2.42495 
0.00820312 0.00145312 2.0231 4.20847e+21 2.79863e-05 14.8224 16.7355 1.8601 
0.00710937 0.00304688 1.94385 3.44877e+21 2.29344e-05 -1.06041 8.40014 0.157955 
0.00820312 0.00304688 1.91659 3.46915e+21 2.30699e-05 5.83097 15.8337 -4.23792 
0.00710937 0.00314063 1.89055 3.59293e+21 2.3893e-05 -1.50829 11.322 3.21886 
0.00820312 0.00314063 1.91662 3.71649e+21 2.47146e-05 -4.19987 15.7219 -0.415083 
0.00710937 0.00323438 1.98136 3.72394e+21 2.47642e-05 1.09122 7.33697 1.69364 
0.00820312 0.00323438 1.95305 3.4648e+21 2.30409e-05 -2.03689 15.4254 -2.13019 
0.00710937 0.00332813 1.95797 3.24594e+21 2.15855e-05 -6.30603 10.3588 3.06671 
0.00820312 0.00332813 1.87518 3.41383e+21 2.2702e-05 -4.23073 13.6513 2.42496 
0.00710937 0.00342187 2.02208 3.42009e+21 2.27436e-05 -2.17387 10.33 3.0963 
0.00820312 0.00342187 1.9229 3.54256e+21 2.3558e-05 -0.0306613 16.4382 -1.11234 
0.00710937 0.00351562 2.10783 3.32889e+21 2.21371e-05 3.36472 5.53571 -0.602143 
0.00820312 0.00351562 1.86888 3.62469e+21 2.41042e-05 -1.56319 10.869 1.23436 
0.00710937 0.00360937 1.88646 3.40154e+21 2.26202e-05 -3.39534 12.09 1.07314 
0.00710937 0.00370312 2.09632 3.11004e+21 2.06818e-05 -1.86241 6.85216 -4.22126 
0.00820312 0.00370312 1.99579 3.47889e+21 2.31346e-05 -2.57617 12.2973 -1.47113 
0.00710937 0.00379687 2.0028 3.36437e+21 2.23731e-05 -0.909119 10.6056 -0.976986 
0.00820312 0.00379687 1.95177 3.38481e+21 2.2509e-05 -1.90009 13.5907 -0.861908 
0.00710937 0.00389062 2.02173 3.3232e+21 2.20993e-05 -2.06451 6.30153 -3.36548 
0.00820312 0.00389062 1.97006 3.42294e+21 2.27625e-05 -1.12477 18.2093 -0.580308 
0.00710937 0.00398438 2.05566 3.37356e+21 2.24342e-05 -3.6677 11.8492 -3.77914 
0.00820312 0.00398438 1.96747 3.24111e+21 2.15534e-05 -2.19563 9.3322 0.0492678 
0.00710937 0.00407813 1.95392 3.2313e+21 2.14882e-05 -2.57565 5.46043 2.15813 
0.00710937 0.00417188 2.01378 3.60515e+21 2.39742e-05 -0.350101 7.19529 2.28218 
0.00710937 0.00426563 1.98302 3.29668e+21 2.19229e-05 1.23554 8.55786 0.453594 
0.00710937 0.00435938 1.92597 3.32191e+21 2.20907e-05 -1.34608 9.00793 -1.88003 
0.00820312 0.00435938 1.96758 3.35396e+21 2.23038e-05 -2.00176 12.5579 -0.711886 
0.00710937 0.00445313 1.9442 3.23106e+21 2.14866e-05 3.58757 9.71879 -0.523561 
0.0136719 0.00417188 2.13769 2.489e+21 1.65519e-05 -0.496466 -1.62394 4.28808 
0.0147656 0.00417188 2.01448 2.54853e+21 1.69477e-05 3.76822 -0.970333 -3.22499 
0.0136719 0.00426563 1.94345 2.42702e+21 1.61397e-05 -0.585287 -5.90591 -3.42628 
0.0147656 0.00426563 2.03956 2.41247e+21 1.60429e-05 -0.723778 -0.492725 2.71254 
0.00929687 0.00623438 1.97656 2.95696e+21 1.96638e-05 0.0873557 9.46782 -1.71084 
0.0103906 0.00623438 0 0 0 0 0 0 
0.00929687 0.00632813 2.03128 3.04041e+21 2.02187e-05 0.254128 3.29796 1.52418 
0.0103906 0.00632813 0 0 0 0 0 0 
0.0136719 0.00604688 1.99169 2.52321e+21 1.67793e-05 1.93744 2.58584 -1.58402 
0.0147656 0.00614063 2.04012 2.44677e+21 1.6271e-05 -0.0348077 3.95259 2.12984 
0.0158594 0.00604688 2.01087 2.37433e+21 1.57893e-05 -0.877377 -0.920723 3.97031 
0.0169531 0.00614063 2.04358 2.50744e+21 1.66745e-05 0.073458 -2.14408 -1.03128 
0.0158594 0.00623438 2.02656 2.31537e+21 1.53972e-05 2.04982 1.04471 -0.0857799 
0.0169531 0.00623438 2.00109 2.37512e+21 1.57946e-05 0.270678 -1.57282 -2.60659 
0.0169531 0.00632813 1.98482 2.45767e+21 1.63435e-05 1.00885 0.0931816 0.878672 
0.0136719 0.00642188 1.92959 2.35895e+21 1.5687e-05 -1.87807 -1.4276 1.86325 
0.0147656 0.00642188 2.04696 2.41937e+21 1.60888e-05 -2.55079 -0.793462 -0.253042 
0.0136719 0.00660938 1.88519 2.49164e+21 1.65694e-05 0.423845 -2.42517 -2.69678 
0.0147656 0.00660938 1.94245 2.4024e+21 1.5976e-05 0.402283 0.696975 3.00629 
0.0158594 0.00660938 2.00017 2.52217e+21 1.67724e-05 -0.0503281 0.0833419 0.0892952 
0.00710937 0.00689062 1.96413 3.1085e+21 2.06715e-05 -0.410477 7.35874 0.82953 
0.0158594 0.00698437 1.96938 2.47342e+21 1.64483e-05 1.8943 -3.34295 -0.924125 
0.0158594 0.00707812 2.00853 2.51741e+21 1.67408e-05 0.775443 1.7289 -0.0495817 
0.0169531 0.00717187 2.02079 2.38712e+21 1.58743e-05 3.48819 -2.70862 -0.822154 
0.0158594 0.00745312 2.02324 2.62399e+21 1.74496e-05 1.43424 0.150178 -2.08451 
0.0169531 0.00745312 2.0625 2.45739e+21 1.63417e-05 3.26736 0.893424 -1.9697 
0.0103906 0.00904687 0 0 0 0 0 0 
0.0103906 0.00914062 0 0 0 0 0 0 
0.0103906 0.00923437 0 0 0 0 0 0 
0.0103906 0.00932812 0 0 0 0 0 0 
0.0114844 0.0127031 2.01176 2.6313e+21 1.74981e-05 -0.152786 -0.933212 1.79541 
0.0147656 0.0127031 1.95983 2.42929e+21 1.61548e-05 -2.56641 -5.14775 -0.119808 
0.0158594 0.0127031 2.00911 2.48701e+21 1.65386e-05 3.62682 -2.73477 -2.10962 
0.0224219 0.00417188 2.03407 2.69735e+21 1.79374e-05 2.99943 0.179752 -1.79594 
0.0235156 0.00417188 2.05003 2.54109e+21 1.68983e-05 3.36276 1.37475 -1.37088 
0.0224219 0.00426563 2.05964 2.56893e+21 1.70834e-05 2.29514 1.81388 -3.65936 
0.0235156 0.00426563 1.95909 2.45977e+21 1.63575e-05 1.16021 1.73898 3.41394 
0.0224219 0.00435938 2.1134 2.34991e+21 1.56269e-05 0.87228 3.77631 -4.21934 
0.0235156 0.00435938 1.98038 2.43892e+21 1.62188e-05 0.749302 -2.71666 1.94718 
0.0224219 0.00445313 1.90661 2.53396e+21 1.68509e-05 0.210083 -0.317175 1.32883 
0.0235156 0.00445313 2.09724 2.54791e+21 1.69436e-05 5.46098 3.40279 -0.741364 
0.0246094 0.00435938 2.02128 2.48876e+21 1.65503e-05 5.55622 0.00402143 2.26496 
0.0257031 0.00435938 2.03508 2.48164e+21 1.65029e-05 3.26326 -0.337968 -4.11131 
0.0246094 0.00445313 2.07883 2.42591e+21 1.61323e-05 -1.296 0.0664383 2.85898 
0.0257031 0.00445313 1.96509 2.4294e+21 1.61555e-05 3.0543 1.03679 0.756613 
0.0289844 0.00398438 1.91849 2.38409e+21 1.58542e-05 3.7929 0.200641 -0.430317 
0.0300781 0.00398438 1.98185 2.42694e+21 1.61391e-05 -2.03568 -2.27861 -0.46265 
0.0300781 0.00407813 1.98011 2.58809e+21 1.72108e-05 3.1669 2.33493 -0.499021 
0.0180469 0.00604688 2.06558 2.46674e+21 1.64038e-05 -0.517948 2.56144 -0.492703 
0.0191406 0.00604688 1.99738 2.46161e+21 1.63697e-05 2.09904 3.14026 -3.59885 
0.0191406 0.00614063 1.98722 2.57568e+21 1.71283e-05 0.284915 -1.2925 -0.499753 
0.0191406 0.00623438 1.9596 2.37263e+21 1.5778e-05 -1.39343 -0.429574 0.383392 
0.0180469 0.00632813 1.94017 2.53125e+21 1.68328e-05 -1.72794 0.736169 4.50578 
0.0191406 0.00632813 2.01288 2.56069e+21 1.70286e-05 -0.839612 0.21352 0.88397 
0.0213281 0.00623438 1.99606 2.56434e+21 1.70528e-05 3.43013 -0.298959 2.25138 
0.0213281 0.00632813 2.04519 2.52144e+21 1.67676e-05 -0.94422 -0.384442 2.704 
0.0224219 0.00604688 1.99403 2.48471e+21 1.65233e-05 0.9493 1.58392 -1.17369 
0.0224219 0.00614063 2.04372 2.49227e+21 1.65736e-05 0.736373 -4.57812 -2.80645 
0.0235156 0.00614063 1.97442 2.34819e+21 1.56155e-05 2.59652 -1.85246 -0.00425781 
0.0224219 0.00623438 1.9709 2.54691e+21 1.69369e-05 0.890391 -2.62903 0.170316 
0.0235156 0.00623438 2.04025 2.46226e+21 1.6374e-05 -0.856197 1.32903 -2.58211 
0.0246094 0.00623438 1.90189 2.54193e+21 1.69038e-05 1.94268 -0.698043 -1.0123 
0.0180469 0.00642188 2.01388 2.50155e+21 1.66353e-05 2.34082 1.95023 2.32049 
0.0213281 0.00642188 1.995 2.49672e+21 1.66032e-05 1.65427 1.56939 0.44321 
0.0202344 0.00651563 1.955 2.38456e+21 1.58573e-05 1.7514 0.691572 -1.2564 
0.0180469 0.00660938 2.02381 2.56679e+21 1.70692e-05 -0.212947 1.68286 -2.82794 
0.0191406 0.00670313 1.93935 2.49384e+21 1.65841e-05 0.648116 -0.590688 2.62913 
0.0267969 0.00623438 2.04258 2.50956e+21 1.66886e-05 2.2631 2.628 1.27674 
0.0289844 0.00632813 2.07204 2.4822e+21 1.65066e-05 2.32017 1.92689 2.4556 
0.0311719 0.00604688 2.10109 2.53861e+21 1.68818e-05 2.50085 0.878143 -2.25507 
0.0311719 0.00614063 1.95428 2.36589e+21 1.57332e-05 0.148474 -0.471207 0.232304 
0.0333594 0.00604688 2.00955 2.55658e+21 1.70012e-05 4.56484 -1.44834 -1.77129 
0.0344531 0.00604688 2.02945 2.50011e+21 1.66257e-05 3.05715 -0.302582 1.86139 
0.0333594 0.00614063 2.08266 2.41644e+21 1.60693e-05 3.89012 0.602192 1.92671 
0.0311719 0.00632813 1.98614 2.52635e+21 1.68002e-05 -0.655864 2.07113 0.746492 
0.0322656 0.00632813 1.90959 2.38899e+21 1.58868e-05 1.20387 -1.34786 1.53238 
0.0333594 0.00623438 2.01077 2.44732e+21 1.62747e-05 1.26052 -1.27135 -2.49295 
0.0344531 0.00623438 1.94194 2.38259e+21 1.58442e-05 -0.0974696 1.51839 -1.20275 
0.0344531 0.00632813 2.08438 2.37673e+21 1.58052e-05 1.14522 2.00824 2.7239 
0.0278906 0.00642188 1.96445 2.42662e+21 1.61371e-05 -0.702066 2.81933 0.692668 
0.0300781 0.00651563 2.03786 2.3393e+21 1.55564e-05 -0.30208 2.72107 -0.240537 
0.0267969 0.00670313 2.00936 2.34565e+21 1.55986e-05 -1.54688 -2.53989 2.94474 
0.0278906 0.00670313 1.95766 2.36649e+21 1.57371e-05 -3.75844 0.0987081 -2.56154 
0.0289844 0.00660938 1.97698 2.51513e+21 1.67256e-05 3.3667 1.53831 0.0890267 
0.0300781 0.00670313 2.03128 2.40585e+21 1.59989e-05 3.55779 -1.22388 -1.0248 
0.0333594 0.00642188 2.01888 2.5088e+21 1.66835e-05 1.186 -0.152944 0.0549452 
0.0344531 0.00642188 1.97194 2.55472e+21 1.69889e-05 1.04017 -0.166329 1.84939 
0.0344531 0.00651563 1.99517 2.47032e+21 1.64276e-05 2.49522 0.267547 -0.824714 
0.0311719 0.00660938 1.94101 2.548e+21 1.69442e-05 2.18584 2.74015 4.18543 
0.0322656 0.00660938 1.96295 2.32021e+21 1.54294e-05 -0.278833 0.266397 -4.54232 
0.0311719 0.00670313 1.96827 2.54247e+21 1.69074e-05 1.50807 -0.364297 1.72469 
0.0322656 0.00670313 2.00697 2.34333e+21 1.55832e-05 3.79301 -0.923291 -0.148752 
0.0333594 0.00660938 2.04816 2.52687e+21 1.68037e-05 -0.509701 0.84279 -0.511966 
0.0344531 0.00670313 1.96084 2.4128e+21 1.60451e-05 -0.884965 -1.77948 1.34244 
0.0180469 0.00689062 1.89262 2.37643e+21 1.58032e-05 2.86205 -3.15922 -1.33663 
0.0191406 0.00689062 1.97783 2.46202e+21 1.63725e-05 2.00363 -2.43348 -2.92844 
0.0202344 0.00689062 2.00307 2.58141e+21 1.71664e-05 4.03816 -0.755651 -2.16837 
0.0246094 0.00679687 2.00114 2.43661e+21 1.62035e-05 2.85904 -2.38489 0.487433 
0.0257031 0.00679687 1.93882 2.32243e+21 1.54442e-05 -1.45864 -2.54362 -2.08193 
0.0257031 0.00689062 1.92356 2.47554e+21 1.64623e-05 3.77854 -3.02058 2.10136 
0.0235156 0.00698437 2.05133 2.3912e+21 1.59015e-05 2.00765 -0.321882 -0.195539 
0.0180469 0.00717187 1.97461 2.37413e+21 1.5788e-05 7.90806 -0.355887 1.67971 
0.0180469 0.00726562 2.00752 2.39477e+21 1.59252e-05 0.96179 -4.18119 3.56786 
0.0180469 0.00735937 2.02954 2.56462e+21 1.70547e-05 3.36872 -6.06542 -2.32712 
0.0191406 0.00735937 2.05418 2.48237e+21 1.65078e-05 2.39023 0.511522 1.58196 
0.0267969 0.00679687 1.96774 2.53252e+21 1.68413e-05 2.81278 -1.33073 -1.85609 
0.0267969 0.00689062 2.04629 2.3494e+21 1.56235e-05 -0.163938 -4.17719 -0.868671 
0.0289844 0.00689062 1.98253 2.4868e+21 1.65372e-05 2.70606 0.0477878 -0.433157 
0.0311719 0.00679687 1.87865 2.26077e+21 1.50341e-05 0.537924 4.70115 -0.0720499 
0.0344531 0.00689062 2.11855 2.37643e+21 1.58032e-05 1.08474 -0.0440335 2.2464 
0.0267969 0.00717187 2.00743 2.35898e+21 1.56872e-05 1.83733 -0.00467073 0.0901763 
0.0278906 0.00717187 1.99565 2.4001e+21 1.59607e-05 0.618834 0.574171 1.759 
0.0267969 0.00726562 2.10146 2.4204e+21 1.60957e-05 -0.893949 5.85186 -0.862298 
0.0300781 0.00717187 2.11711 2.38712e+21 1.58743e-05 0.517239 -0.23169 1.01378 
0.0278906 0.00735937 2.01301 2.46761e+21 1.64096e-05 1.57394 2.36742 -1.31576 
0.0333594 0.00717187 2.03165 2.43689e+21 1.62053e-05 0.367014 -1.95298 -2.36517 
0.0333594 0.00735937 1.96692 2.5372e+21 1.68724e-05 1.83788 -0.0913486 -2.04231 
0.0180469 0.0127031 2.00644 2.47914e+21 1.64863e-05 -2.80552 0.353228 1.37355 
0.0180469 0.0180469 0 0 0 0 0 0 
0.0180469 0.0181406 0 0 0 0 0 0 
0.0180469 0.0182344 0 0 0 0 0 0 
0.0180469 0.0183281 0 0 0 0 0 0 
0.0180469 0.0189844 0 0 0 0 0 0 
0.0180469 0.0190781 0 0 0 0 0 0 
0.0180469 0.0193594 0 0 0 0 0 0 
0.0180469 0.0194531 0 0 0 0 0 0 
0.0180469 0.0210469 0 0 0 0 0 0 
0.0180469 0.0211406 0 0 0 0 0 0 
0.0180469 0.0214219 0 0 0 0 0 0 
0.0180469 0.0215156 0 0 0 0 0 0 
0.00601562 0.00154688 2.08291 7.7733e+21 5.16925e-05 23.7762 3.78132 0.509801 
0.00492187 0.00164063 0 0 0 0 0 0 
0.00601562 0.00164063 1.90196 3.65209e+21 2.42864e-05 21.339 27.5923 7.54086 
0.00710937 0.00154688 1.87295 4.38487e+21 2.91594e-05 32.3078 22.3232 0.523118 
0.00820312 0.00154688 2.06698 4.16412e+21 2.76914e-05 17.7785 13.2078 1.74373 
0.00710937 0.00164063 1.84062 4.00186e+21 2.66124e-05 28.879 21.0902 2.17947 
0.00820312 0.00164063 1.88768 3.91671e+21 2.60461e-05 17.9397 14.0622 -5.37524 
0.00710937 0.00173438 1.90037 4.02717e+21 2.67807e-05 14.2798 18.7942 1.0991 
0.00820312 0.00173438 2.09737 3.96453e+21 2.63641e-05 18.8066 17.2238 -1.47377 
0.00710937 0.00182813 1.98442 3.78669e+21 2.51815e-05 15.3762 19.9367 1.6992 
0.00820312 0.00182813 1.93829 3.94801e+21 2.62542e-05 14.1386 19.8336 -0.927507 
0.00710937 0.00192187 1.82723 3.52121e+21 2.34161e-05 10.0459 18.1462 0.920484 
0.00820312 0.00192187 2.03662 3.71504e+21 2.4705e-05 7.03165 19.7841 5.76723 
0.00710937 0.00201563 1.91304 3.80407e+21 2.5297e-05 7.53746 18.9486 -1.68602 
0.00820312 0.00201563 1.84004 3.98118e+21 2.64748e-05 10.9863 21.9136 -1.7059 
0.00710937 0.00454687 2.07323 3.33854e+21 2.22013e-05 4.55706 4.74486 -2.5729 
0.00710937 0.00464062 2.05092 3.34468e+21 2.22421e-05 -1.91123 8.15496 -1.56552 
0.00820312 0.00464062 2.11263 3.24434e+21 2.15748e-05 -4.5759 10.2952 0.0795697 
0.00820312 0.00482812 2.02218 3.22122e+21 2.14211e-05 -2.92796 12.1273 0.230132 
0.00710937 0.00492187 1.87831 3.35223e+21 2.22923e-05 2.41477 5.37696 1.57122 
0.00710937 0.00501562 1.98967 3.48143e+21 2.31515e-05 1.28744 4.74126 -0.827977 
0.00820312 0.00520312 2.02129 3.17699e+21 2.1127e-05 -0.358298 8.46473 2.30102 
0.00929687 0.00510937 2.02684 3.35244e+21 2.22937e-05 0.461183 6.32002 0.0263464 
0.0103906 0.00510937 0 0 0 0 0 0 
0.00929687 0.00520312 1.95863 3.1791e+21 2.1141e-05 -1.70713 4.96901 0.0605703 
0.0103906 0.00520312 0 0 0 0 0 0 
0.0147656 0.00492187 2.01891 2.35886e+21 1.56864e-05 0.754515 2.58423 1.71224 
0.0136719 0.00501562 2.01282 2.50354e+21 1.66485e-05 -0.200658 -0.453507 2.53083 
0.0147656 0.00501562 1.94851 2.49116e+21 1.65662e-05 1.19629 -2.4707 0.822169 
0.0136719 0.00510937 2.00316 2.35735e+21 1.56764e-05 -1.77186 -0.529203 4.49542 
0.0147656 0.00510937 2.02656 2.52443e+21 1.67875e-05 -0.751123 0.161473 -0.243886 
0.0136719 0.00520312 2.04288 2.49386e+21 1.65842e-05 -0.722453 -3.877 0.182051 
0.0147656 0.00520312 2.09045 2.64898e+21 1.76158e-05 2.54517 1.92209 1.79084 
0.00820312 0.00557812 1.99068 3.21941e+21 2.14091e-05 -0.776629 7.2027 -0.574027 
0.0136719 0.00529687 2.02078 2.47317e+21 1.64466e-05 -0.372031 5.04528 -0.712175 
0.0147656 0.00529687 2.10653 2.50833e+21 1.66804e-05 1.87255 -2.499 -0.191066 
0.0136719 0.00539062 2.11356 2.54821e+21 1.69456e-05 -0.798059 -0.691053 3.47729 
0.0147656 0.00539062 2.02189 2.26315e+21 1.505e-05 0.0459396 1.12601 -0.685749 
0.0158594 0.00529687 1.90483 2.36475e+21 1.57256e-05 1.25714 -2.35634 0.280522 
0.0169531 0.00529687 1.92457 2.42921e+21 1.61543e-05 2.11898 -3.70613 -1.64345 
0.0158594 0.00539062 1.90585 2.4935e+21 1.65818e-05 -0.608929 -1.44042 -5.53604 
0.0169531 0.00539062 1.98792 2.35529e+21 1.56627e-05 -1.85172 0.39221 -2.64084 
0.0158594 0.00548437 1.96631 2.3971e+21 1.59407e-05 2.19721 0.747103 -0.413156 
0.0169531 0.00548437 2.05214 2.52163e+21 1.67688e-05 -0.414292 -0.983982 3.34096 
0.0158594 0.00557812 2.0247 2.59333e+21 1.72457e-05 2.40984 -5.65287 -0.368358 
0.0169531 0.00557812 2.01849 2.3763e+21 1.58024e-05 1.4697 -1.18919 -1.1781 
0.0136719 0.00585938 2.04477 2.43707e+21 1.62065e-05 -0.299859 -4.18078 -3.96535 
0.0136719 0.00595313 1.97551 2.53687e+21 1.68702e-05 1.0605 1.37542 -0.782917 
0.0147656 0.00595313 1.92622 2.49776e+21 1.66101e-05 -0.557018 -3.28654 -2.44172 
0.0103906 0.00773437 0 0 0 0 0 0 
0.00929687 0.00782813 1.89929 2.94993e+21 1.9617e-05 -0.665388 6.62285 0.45868 
0.0103906 0.00782813 0 0 0 0 0 0 
0.0103906 0.00810938 0 0 0 0 0 0 
0.0103906 0.00820313 0 0 0 0 0 0 
0.0103906 0.00829688 0 0 0 0 0 0 
0.0103906 0.00839063 0 0 0 0 0 0 
0.0180469 0.00454687 1.92004 2.43051e+21 1.61629e-05 -0.608924 -3.04962 2.064 
0.0191406 0.00454687 1.85676 2.32469e+21 1.54592e-05 -2.0549 -2.74536 4.14831 
0.0180469 0.00464062 1.96566 2.31786e+21 1.54138e-05 5.74059 2.37508 2.44906 
0.0191406 0.00464062 2.00731 2.42155e+21 1.61033e-05 -0.59676 -3.37315 6.59229 
0.0180469 0.00473437 2.08056 2.30147e+21 1.53048e-05 7.49372 -1.50451 0.0546812 
0.0191406 0.00473437 2.0237 2.29163e+21 1.52394e-05 5.17435 4.06855 0.430756 