ITEM: TIMESTEP
500000
ITEM: NUMBER OF CELLS
23338
ITEM: BOX BOUNDS oo ao pp
0 0.12
0 0.03
-0.1 0.1
ITEM: CELLS xc yc f_out[1] f_out[2] f_out[3] f_out[4] f_out[5] f_out[6] 
0.003 0.00375 0 0 0 0 0 0 
0.003 0.00525 0 0 0 0 0 0 
0.003 0.00675 0 0 0 0 0 0 
0.003 0.00825 0 0 0 0 0 0 
0.003 0.00975 0 0 0 0 0 0 
0.003 0.01125 0 0 0 0 0 0 
0.003 0.01275 0 0 0 0 0 0 
0.003 0.01425 0 0 0 0 0 0 
0.003 0.01575 0 0 0 0 0 0 
0.003 0.01725 0 0 0 0 0 0 
0.003 0.01875 0 0 0 0 0 0 
0.003 0.02025 0 0 0 0 0 0 
0.003 0.02175 0 0 0 0 0 0 
0.003 0.02325 0 0 0 0 0 0 
0.027 0.02325 0 0 0 0 0 0 
0.003 0.02475 0 0 0 0 0 0 
0.027 0.02475 0 0 0 0 0 0 
0.003 0.02625 0 0 0 0 0 0 
0.027 0.02625 0 0 0 0 0 0 
0.003 0.02775 0 0 0 0 0 0 
0.027 0.02775 0 0 0 0 0 0 
0.003 0.02925 0 0 0 0 0 0 
0.027 0.02925 0 0 0 0 0 0 
0.009 0.01425 0 0 0 0 0 0 
0.009 0.01575 0 0 0 0 0 0 
0.009 0.01725 0 0 0 0 0 0 
0.009 0.01875 0 0 0 0 0 0 
0.009 0.02025 0 0 0 0 0 0 
0.009 0.02175 0 0 0 0 0 0 
0.009 0.02325 0 0 0 0 0 0 
0.009 0.02475 0 0 0 0 0 0 
0.009 0.02625 0 0 0 0 0 0 
0.009 0.02775 0 0 0 0 0 0 
0.009 0.02925 0 0 0 0 0 0 
0.015 0.01425 0 0 0 0 0 0 
0.015 0.01575 0 0 0 0 0 0 
0.015 0.01725 0 0 0 0 0 0 
0.015 0.01875 0 0 0 0 0 0 
0.015 0.02025 0 0 0 0 0 0 
0.015 0.02175 0 0 0 0 0 0 
0.015 0.02325 0 0 0 0 0 0 
0.015 0.02475 0 0 0 0 0 0 
0.015 0.02625 0 0 0 0 0 0 
0.015 0.02775 0 0 0 0 0 0 
0.015 0.02925 0 0 0 0 0 0 
0.021 0.02325 0 0 0 0 0 0 
0.021 0.02475 0 0 0 0 0 0 
0.021 0.02625 0 0 0 0 0 0 
0.021 0.02775 0 0 0 0 0 0 
0.021 0.02925 0 0 0 0 0 0 
0.0015 0.000375 0 0 0 0 0 0 
0.0015 0.001125 0 0 0 0 0 0 
0.0015 0.001875 0 0 0 0 0 0 
0.0015 0.002625 0 0 0 0 0 0 
0.0045 0.002625 0 0 0 0 0 0 
0.0255 0.022125 0 0 0 0 0 0 
0.0285 0.022125 0 0 0 0 0 0 
0.0105 0.000375 1.89148 2.93619e+21 1.95257e-05 0.159007 2.19471 -4.04511 
0.0105 0.001125 2.07268 3.1177e+21 2.07327e-05 2.04689 8.29524 -2.2398 
0.0075 0.013125 0 0 0 0 0 0 
0.0105 0.013125 0 0 0 0 0 0 
0.0135 0.013125 0 0 0 0 0 0 
0.0165 0.013125 0 0 0 0 0 0 
0.0195 0.022125 0 0 0 0 0 0 
0.0225 0.022125 0 0 0 0 0 0 
0.0255 0.000375 2.00561 1.60145e+21 1.06497e-05 1.12156 0.897926 -2.45862 
0.0285 0.000375 2.06471 1.49959e+21 9.9723e-06 -0.837662 0.716164 -5.99977 
0.0135 0.000375 2.01987 1.65091e+21 1.09785e-05 1.66997 -1.74906 -2.75593 
0.0165 0.000375 2.02317 1.51468e+21 1.00726e-05 0.302549 -2.0822 2.6505 
0.00375 0.0001875 1.98211 7.80234e+21 5.18856e-05 27.6273 -0.586234 -2.93107 
0.00525 0.0001875 1.93575 5.73429e+21 3.81331e-05 42.7772 2.16802 1.05691 
0.00375 0.0016875 2.00725 7.40514e+21 4.92442e-05 14.0671 0.757283 -0.0645999 
0.00525 0.0016875 2.04631 5.68479e+21 3.78038e-05 15.5267 -4.01583 -0.517262 
0.00375 0.0020625 0 0 0 0 0 0 
0.00525 0.0020625 0 0 0 0 0 0 
0.01125 0.0076875 0 0 0 0 0 0 
0.01125 0.0080625 0 0 0 0 0 0 
0.01125 0.0091875 0 0 0 0 0 0 
0.0195 0.000375 1.94882 1.61466e+21 1.07375e-05 3.87378 0.499045 -2.31365 
0.0225 0.000375 1.91545 1.46564e+21 9.74651e-06 0.896989 -0.654773 0.112841 
0.003375 0.00084375 2.00093 7.69514e+21 5.11727e-05 26.6469 -3.32713 3.12742 
0.004125 0.00084375 1.91997 7.45794e+21 4.95953e-05 24.0503 -1.25758 3.3864 
0.003375 0.00103125 1.94598 7.81227e+21 5.19516e-05 25.0553 -6.15139 2.4437 
0.004125 0.00103125 1.81514 6.80433e+21 4.52488e-05 29.844 -3.52012 -0.73311 
0.004875 0.00084375 1.88305 6.30437e+21 4.19241e-05 30.7924 1.62875 -1.44603 
0.005625 0.00084375 1.72444 5.35201e+21 3.55908e-05 35.4089 1.43785 1.3465 
0.004875 0.00103125 1.88831 6.51899e+21 4.33513e-05 32.9957 1.50279 -2.4026 
0.005625 0.00103125 1.87779 5.56419e+21 3.70018e-05 33.6735 4.28323 2.98567 
0.003375 0.00121875 2.01127 7.25798e+21 4.82656e-05 21.109 -5.68107 -2.74284 
0.004125 0.00121875 1.89643 7.10402e+21 4.72418e-05 25.3846 -0.2538 1.61344 
0.003375 0.00140625 1.95887 8.00577e+21 5.32384e-05 17.5771 -1.46506 2.28617 
0.004125 0.00140625 1.94039 7.27551e+21 4.83821e-05 20.6163 1.64129 0.849852 
0.004875 0.00121875 1.89637 6.33326e+21 4.21162e-05 25.5118 -2.38111 -1.07725 
0.005625 0.00121875 2.04532 5.27462e+21 3.50762e-05 31.9365 0.78123 -1.35025 
0.004875 0.00140625 1.99776 6.18096e+21 4.11034e-05 19.147 1.37474 -3.11331 
0.005625 0.00140625 1.83794 4.81278e+21 3.2005e-05 21.3036 3.41938 -2.79315 
0.025875 0.00721875 1.98757 1.42671e+21 9.48765e-06 0.177171 -1.85769 -2.27768 
0.026625 0.00721875 1.94941 1.54587e+21 1.028e-05 1.7977 0.946259 1.1078 
0.025875 0.00740625 2.00446 1.51896e+21 1.01011e-05 2.42449 -0.0500189 3.27879 
0.027375 0.00684375 2.04908 1.57269e+21 1.04584e-05 1.42759 -0.918189 -1.44398 
0.028125 0.00684375 2.00936 1.60577e+21 1.06784e-05 5.64884 -0.743994 2.9018 
0.027375 0.00703125 1.9149 1.58065e+21 1.05113e-05 2.65341 1.82255 0.381721 
0.028125 0.00703125 2.08242 1.5211e+21 1.01153e-05 6.71411 1.01753 1.41647 
0.024375 0.00796875 2.03583 1.51968e+21 1.01058e-05 4.65653 1.34301 -0.180361 
0.028125 0.00796875 1.96793 1.58785e+21 1.05592e-05 4.30527 -1.47141 -0.0775795 
0.027375 0.00815625 1.98988 1.62628e+21 1.08147e-05 1.56017 -1.61493 0.534858 
0.025875 0.00871875 1.96934 1.57458e+21 1.04709e-05 -1.07356 1.74325 -3.56367 
0.026625 0.00890625 1.93793 1.56557e+21 1.04111e-05 6.21124 2.03219 -1.65001 
0.028125 0.0100312 2.00376 1.54569e+21 1.02789e-05 0.840077 1.41383 1.68874 
0.029625 0.00984375 2.05947 1.53144e+21 1.01841e-05 1.09262 -0.275197 1.48657 
0.029625 0.0104062 1.97133 1.5509e+21 1.03135e-05 -1.07622 0.256674 -2.23097 
0.024375 0.0216562 1.97755 1.51283e+21 1.00603e-05 -1.26312 -0.305016 1.58018 
0.025125 0.0216562 1.88463 1.47707e+21 9.8225e-06 -5.32179 -1.71333 3.20262 
0.025875 0.0216562 1.97816 1.58436e+21 1.0536e-05 1.99115 2.28621 1.04959 
0.026625 0.0216562 2.0599 1.59867e+21 1.06311e-05 -3.09819 -1.29206 0.546867 
0.027375 0.0216562 2.06356 1.4413e+21 9.58466e-06 4.94973 -0.240086 -0.0295995 
0.028125 0.0216562 2.00981 1.65589e+21 1.10117e-05 -1.81362 5.47867 -1.99293 
0.028875 0.0216562 2.00071 1.6094e+21 1.07025e-05 1.23515 -3.8073 3.78593 
0.029625 0.0216562 1.99316 1.43415e+21 9.5371e-06 -0.227835 2.27491 5.84053 
0.006375 0.00271875 2.0172 1.94352e+21 1.29244e-05 -1.30251 6.63026 2.81239 
0.007125 0.00271875 1.94711 2.13137e+21 1.41736e-05 -3.19126 13.6098 -4.47651 
0.006375 0.00290625 1.9939 2.19052e+21 1.4567e-05 2.61144 7.18733 0.447928 
0.007125 0.00290625 1.89035 2.07953e+21 1.38289e-05 -0.322679 11.0688 -0.928904 
0.007875 0.00346875 1.94933 2.15668e+21 1.43419e-05 -1.39753 7.24941 -0.47425 
0.008625 0.00346875 1.86215 2.22194e+21 1.47759e-05 -2.07592 9.40277 6.27941 
0.007875 0.00365625 1.99263 2.08323e+21 1.38535e-05 -0.499935 16.4398 3.18411 
0.008625 0.00365625 2.1018 2.11109e+21 1.40387e-05 0.228403 10.2841 -5.20893 
0.007875 0.00459375 2.02381 1.89213e+21 1.25827e-05 4.08088 8.6366 4.39673 
0.008625 0.00459375 1.98407 2.02271e+21 1.3451e-05 1.15983 8.64463 0.30155 
0.007875 0.00478125 1.95455 2.06884e+21 1.37578e-05 -3.32958 13.0866 -2.71241 
0.008625 0.00478125 2.00549 2.04517e+21 1.36004e-05 1.75109 8.47176 4.63955 
0.007875 0.00496875 2.0463 1.99305e+21 1.32538e-05 1.38511 6.82739 -1.0093 
0.007875 0.00515625 2.09272 2.06983e+21 1.37644e-05 0.828379 12.0718 -3.3055 
0.008625 0.00515625 2.00027 1.89863e+21 1.26259e-05 -2.55641 5.25574 -1.17132 
0.007875 0.00534375 2.00009 2.00356e+21 1.33237e-05 -2.00456 7.27595 -0.56041 
0.008625 0.00534375 1.99821 1.97179e+21 1.31124e-05 -4.56583 7.94173 -5.45194 
0.008625 0.00553125 2.08164 2.0891e+21 1.38925e-05 0.893245 5.95153 -1.46286 
0.006375 0.00609375 1.91941 1.87351e+21 1.24589e-05 -4.7317 0.146344 -4.40553 
0.006375 0.00628125 1.99293 1.89191e+21 1.25812e-05 -0.716293 -0.397452 2.82435 
0.007875 0.00609375 1.99287 1.87583e+21 1.24743e-05 0.303749 5.05883 -0.437151 
0.007875 0.00628125 1.9201 1.9838e+21 1.31923e-05 -0.266951 9.24758 -1.49713 
0.008625 0.00628125 2.00542 1.89011e+21 1.25692e-05 -0.536501 7.56358 3.72217 
0.006375 0.00646875 2.03944 1.90268e+21 1.26528e-05 -2.19627 1.31024 -3.17221 
0.006375 0.00665625 1.91619 1.99893e+21 1.32929e-05 4.71779 3.70134 -2.17581 
0.007875 0.00646875 1.9453 1.91581e+21 1.27401e-05 -3.00966 5.83897 -1.50089 
0.007875 0.00665625 1.98151 1.96386e+21 1.30597e-05 0.333582 6.84694 1.63535 
0.007875 0.00684375 2.00682 1.93651e+21 1.28778e-05 -2.26571 6.75861 0.399181 
0.008625 0.00684375 1.98838 1.86706e+21 1.24159e-05 1.46035 7.95919 2.07223 
0.006375 0.00721875 2.10768 1.80495e+21 1.20029e-05 2.50525 3.98732 -4.2586 
0.006375 0.00740625 1.99703 1.97988e+21 1.31662e-05 1.39527 1.45998 4.01074 
0.008625 0.00740625 1.98629 1.89793e+21 1.26213e-05 -0.643919 8.8148 -2.70225 
0.006375 0.00759375 1.9741 1.83598e+21 1.22093e-05 -6.37855 5.15722 -2.48559 
0.007125 0.00759375 1.96637 1.88535e+21 1.25376e-05 2.21043 6.79591 1.60234 
0.006375 0.00778125 2.11287 1.79447e+21 1.19332e-05 3.99096 -2.82522 -2.31672 
0.006375 0.00796875 1.98797 1.81882e+21 1.20951e-05 1.84596 6.38717 -1.0787 
0.006375 0.00815625 2.06345 1.89669e+21 1.2613e-05 -2.91169 6.32326 2.70647 
0.006375 0.00834375 2.05516 1.87187e+21 1.24479e-05 2.40416 6.36108 -3.42221 
0.006375 0.00853125 2.02771 1.8556e+21 1.23398e-05 1.90488 3.46828 2.11149 
0.006375 0.00909375 1.98396 1.8435e+21 1.22593e-05 1.06615 4.25873 3.64467 
0.006375 0.00928125 1.99292 1.7651e+21 1.17379e-05 2.64507 1.86143 1.15457 
0.010125 0.00946875 1.88944 1.56631e+21 1.0416e-05 5.35929 -1.27832 -0.925636 
0.006375 0.00984375 1.94612 1.64484e+21 1.09382e-05 1.03527 7.72446 3.31763 
0.006375 0.0100312 1.99044 1.79814e+21 1.19576e-05 -0.630551 2.87804 -2.19278 
0.006375 0.0105937 1.9833 1.82886e+21 1.21619e-05 0.400742 -1.17009 -1.60416 
0.006375 0.0107812 1.9581 1.66714e+21 1.10865e-05 5.59958 1.11192 0.548756 
0.006375 0.0109687 2.03146 1.82631e+21 1.21449e-05 -0.04403 1.4635 -2.32613 
0.006375 0.0111562 2.02119 1.76518e+21 1.17384e-05 -0.396216 0.744657 0.885458 
0.006375 0.0113437 1.97649 1.74348e+21 1.15942e-05 -0.280275 -2.09135 -1.90692 
0.006375 0.0115312 2.01759 1.73354e+21 1.1528e-05 3.14793 -1.53544 -0.87803 
0.006375 0.0117188 1.96279 1.77642e+21 1.18132e-05 1.68943 -2.46696 -0.796964 
0.006375 0.0122813 1.96852 1.87303e+21 1.24557e-05 -1.40442 0.481987 -2.32656 
0.006375 0.0126563 2.00794 1.7663e+21 1.17459e-05 -1.35526 -2.28475 0.719813 
0.013875 0.00684375 2.07421 1.61569e+21 1.07443e-05 0.624089 -1.67303 4.5074 
0.014625 0.00684375 2.01348 1.54127e+21 1.02495e-05 2.17216 -2.93165 -0.391561 
0.014625 0.00703125 1.98111 1.58387e+21 1.05328e-05 3.52352 0.855975 0.37134 
0.013875 0.00796875 2.04193 1.61909e+21 1.0767e-05 0.0105773 -1.6343 0.343216 
0.013875 0.00815625 1.88437 1.57216e+21 1.04549e-05 2.38647 1.30706 0.641251 
0.014625 0.00815625 2.04982 1.5347e+21 1.02057e-05 2.0861 3.10485 -0.710747 
0.016125 0.00946875 2.07012 1.54907e+21 1.03013e-05 3.59445 -2.72171 -0.209052 
0.018375 0.00684375 1.93957 1.59088e+21 1.05794e-05 3.87574 2.17738 3.73777 
0.019125 0.00684375 1.88669 1.62065e+21 1.07773e-05 2.44872 2.1289 -0.848152 
0.018375 0.00703125 1.94876 1.45027e+21 9.64432e-06 -0.317825 -0.60749 -0.123861 
0.018375 0.00721875 2.08277 1.53646e+21 1.02175e-05 2.59247 0.396747 1.1626 
0.019125 0.00721875 1.94469 1.61956e+21 1.077e-05 1.40499 -4.18592 -0.812198 
0.020625 0.00759375 2.04565 1.49487e+21 9.94086e-06 -1.66858 1.34057 0.635567 
0.019875 0.00778125 1.98616 1.61738e+21 1.07556e-05 0.658728 -1.38623 3.67199 
0.022875 0.0216562 2.00775 1.52356e+21 1.01317e-05 -1.4863 -0.0427055 -0.11844 
0.023625 0.0216562 1.89944 1.47349e+21 9.79871e-06 6.83502 3.35085 1.06374 
0.01125 0.0054375 0 0 0 0 0 0 
0.01125 0.0058125 0 0 0 0 0 0 
0.01125 0.0061875 0 0 0 0 0 0 
0.01125 0.0065625 0 0 0 0 0 0 
0.01125 0.0069375 0 0 0 0 0 0 
0.01125 0.0073125 0 0 0 0 0 0 
0.01125 0.0084375 0 0 0 0 0 0 
0.01125 0.0088125 0 0 0 0 0 0 
0.01275 0.0024375 2.01449 1.50395e+21 1.00012e-05 0.277754 -0.229336 -0.300403 
0.01275 0.0028125 1.94962 1.56184e+21 1.03862e-05 -2.23107 -1.69093 0.359159 
0.02325 0.0016875 1.95663 1.52244e+21 1.01242e-05 3.25887 -3.76411 -0.818284 
0.02475 0.0016875 2.00341 1.50567e+21 1.00127e-05 5.22762 1.77479 -0.554298 
0.02625 0.0016875 1.93258 1.50399e+21 1.00016e-05 5.59649 2.87081 -0.935746 
0.025875 0.00496875 1.95485 1.50789e+21 1.00274e-05 1.7777 0.970768 0.844781 
0.026625 0.00496875 1.99463 1.54205e+21 1.02546e-05 3.80483 0.294484 3.26022 
0.025875 0.00515625 1.94962 1.71206e+21 1.13852e-05 1.88742 -0.0126012 0.16971 
0.026625 0.00515625 1.95408 1.54524e+21 1.02759e-05 -0.149399 -1.39494 -0.857696 
0.028875 0.00534375 1.97112 1.53973e+21 1.02392e-05 4.37428 2.39999 -1.52362 
0.029625 0.00534375 2.00823 1.56091e+21 1.03801e-05 -1.96113 0.434607 -0.448348 
0.028875 0.00553125 1.93284 1.56529e+21 1.04092e-05 3.4999 1.66804 -0.885268 
0.029625 0.00553125 1.9915 1.58371e+21 1.05317e-05 -3.43692 0.545195 0.561092 
0.027375 0.00609375 2.09473 1.43752e+21 9.55951e-06 2.10589 3.58546 1.93445 
0.028125 0.00609375 1.96703 1.52481e+21 1.014e-05 3.43542 2.26408 -2.31415 
0.027375 0.00628125 2.05072 1.52614e+21 1.01488e-05 3.95724 -1.4753 -4.12375 
0.028125 0.00628125 1.9121 1.55137e+21 1.03166e-05 2.9926 -3.91357 1.73742 
0.028875 0.00609375 2.00091 1.53781e+21 1.02265e-05 5.52071 3.09199 -2.67934 
0.029625 0.00609375 2.01549 1.52295e+21 1.01276e-05 -3.3447 1.07658 1.03333 
0.029625 0.00628125 2.02984 1.52614e+21 1.01488e-05 0.79103 -0.11145 -0.295804 
0.028875 0.00646875 2.07333 1.53614e+21 1.02154e-05 4.01055 -0.200942 -0.0978919 
0.028875 0.00665625 1.98181 1.55408e+21 1.03347e-05 1.73002 3.55888 0.127965 
0.029625 0.00665625 1.96294 1.47927e+21 9.83714e-06 2.56257 0.13218 -0.802588 
0.025875 0.00684375 1.99506 1.47678e+21 9.82057e-06 0.584544 0.565086 -0.770771 
0.026625 0.00684375 2.00258 1.43543e+21 9.54564e-06 2.27445 5.33946 0.428997 
0.025875 0.00703125 1.95663 1.53558e+21 1.02116e-05 1.68717 3.95611 2.92118 
0.026625 0.00703125 1.9751 1.53075e+21 1.01795e-05 -0.187662 1.37602 1.99205 
0.025125 0.00759375 1.97682 1.59472e+21 1.06049e-05 3.10879 2.18449 0.512191 
0.025875 0.00759375 2.02621 1.5515e+21 1.03175e-05 4.11618 -1.24333 -0.367606 
0.026625 0.00759375 2.04125 1.50232e+21 9.99041e-06 4.00123 1.5138 -0.621845 
0.026625 0.00815625 2.03769 1.48474e+21 9.87353e-06 2.31589 1.22599 -2.44239 
0.029625 0.00815625 2.00304 1.49029e+21 9.91044e-06 2.78026 -0.387318 -0.476052 
0.026625 0.00834375 1.96353 1.63314e+21 1.08604e-05 0.171928 -0.824441 -0.494093 
0.028125 0.00871875 1.9905 1.54602e+21 1.0281e-05 -1.01547 1.29604 1.02291 
0.025875 0.00928125 1.9391 1.50354e+21 9.99852e-06 1.89836 -0.923629 -1.85064 
0.007875 0.00421875 1.96313 2.12471e+21 1.41293e-05 -2.13969 6.39037 0.267357 
0.008625 0.00421875 1.90842 2.10325e+21 1.39866e-05 4.87008 11.778 -1.05281 
0.007875 0.00440625 1.95851 2.16272e+21 1.43821e-05 -1.32562 6.60298 -1.96872 
0.008625 0.00440625 1.96536 2.10364e+21 1.39892e-05 1.52803 10.6658 3.71145 
0.006375 0.00496875 1.93056 1.99448e+21 1.32633e-05 -3.08964 3.02738 1.14795 
0.006375 0.00515625 2.12255 1.81083e+21 1.2042e-05 1.65068 2.21748 -0.226332 
0.006375 0.00534375 1.90881 1.76715e+21 1.17515e-05 1.51496 -1.00381 4.51556 
0.007125 0.00534375 2.00353 1.92308e+21 1.27885e-05 -1.85552 8.32527 1.35434 
0.006375 0.00553125 1.88512 2.018e+21 1.34197e-05 0.524105 0.607447 -0.165505 
0.007125 0.00553125 2.14494 1.95611e+21 1.30081e-05 3.2641 8.87441 5.02254 
0.006375 0.00571875 1.96964 1.86649e+21 1.24122e-05 -4.09909 1.72762 2.1656 
0.006375 0.00590625 1.88761 1.97251e+21 1.31172e-05 -0.25204 5.49908 1.14489 
0.007125 0.00590625 1.93055 2.09635e+21 1.39407e-05 -0.997196 0.72904 1.75673 
0.008625 0.00571875 1.96769 2.04634e+21 1.36081e-05 2.01766 8.51814 -0.14469 
0.007875 0.00590625 2.09015 1.98329e+21 1.31889e-05 -1.82528 5.61762 0.895455 
0.008625 0.00590625 1.99429 1.9488e+21 1.29595e-05 0.319236 2.79406 -1.93275 
0.006375 0.00684375 1.94566 1.99067e+21 1.3238e-05 2.48967 7.80513 1.59184 
0.007125 0.00684375 1.9655 1.88194e+21 1.25149e-05 2.30581 5.29923 -2.0517 
0.006375 0.00703125 1.99061 1.89835e+21 1.2624e-05 -0.197073 3.74331 0.183909 
0.009375 0.00759375 1.97315 1.81589e+21 1.20757e-05 0.656696 2.8894 1.49065 
0.010125 0.00759375 0 0 0 0 0 0 
0.009375 0.00778125 2.02596 1.80918e+21 1.20311e-05 -2.34979 0.728741 0.0651063 
0.010125 0.00778125 0 0 0 0 0 0 
0.006375 0.00871875 1.97634 1.8084e+21 1.20258e-05 -1.89226 0.485558 0.556115 
0.006375 0.00890625 1.94559 1.78939e+21 1.18994e-05 -0.763958 3.97968 0.157478 
0.006375 0.00946875 1.99975 1.77945e+21 1.18334e-05 2.04438 2.59102 -1.53014 
0.006375 0.00965625 2.08944 1.77567e+21 1.18082e-05 -1.01426 1.79962 -1.37555 
0.013875 0.00721875 1.94337 1.50197e+21 9.9881e-06 -4.43527 -1.27686 -0.173315 
0.014625 0.00740625 2.02829 1.55869e+21 1.03653e-05 2.28127 -2.58372 -2.57278 
0.017625 0.00721875 1.97316 1.54744e+21 1.02905e-05 -0.38326 -0.450765 -2.1874 
0.016875 0.00740625 2.0168 1.50215e+21 9.98928e-06 2.63215 0.662326 -1.88553 
0.015375 0.00759375 1.98957 1.63347e+21 1.08626e-05 -0.982205 -0.619268 1.26117 
0.016125 0.00778125 2.03105 1.5083e+21 1.00302e-05 1.42129 -3.00959 -0.100358 
0.014625 0.00834375 1.94749 1.52055e+21 1.01117e-05 0.488778 -2.85028 0.0797627 
0.014625 0.00853125 2.12189 1.55745e+21 1.0357e-05 -0.579637 -1.68059 2.40872 
0.015375 0.00834375 2.03779 1.53547e+21 1.02109e-05 3.99841 -0.812693 -0.506019 
0.017625 0.00853125 1.99546 1.56939e+21 1.04364e-05 1.2735 -1.11363 2.6737 
0.021375 0.00534375 2.09605 1.58633e+21 1.05491e-05 -3.33874 2.08277 1.43792 
0.022125 0.00534375 1.94573 1.6181e+21 1.07604e-05 5.7302 1.65259 -1.10377 
0.021375 0.00553125 1.99345 1.48549e+21 9.87854e-06 1.06639 -0.801345 2.46916 
0.022125 0.00553125 1.93345 1.641e+21 1.09127e-05 3.50893 1.80021 -1.74145 
0.021375 0.00646875 1.98221 1.64812e+21 1.096e-05 7.02355 -2.87033 4.23078 
0.021375 0.00665625 1.98742 1.57619e+21 1.04816e-05 4.1185 0.279125 -2.49738 
0.022125 0.00665625 1.97074 1.55748e+21 1.03573e-05 -2.79049 -1.7475 -2.09586 
0.020625 0.00721875 1.97217 1.61328e+21 1.07283e-05 0.384698 4.51019 1.26523 
0.019875 0.00740625 2.00716 1.51743e+21 1.00909e-05 2.97753 0.496664 -2.32442 
0.020625 0.00740625 1.96157 1.56633e+21 1.04161e-05 -0.741598 2.27884 -0.655725 
0.021375 0.00684375 1.91924 1.48174e+21 9.85356e-06 1.87541 3.75023 -2.02071 
0.022125 0.00684375 1.96757 1.533e+21 1.01945e-05 2.12691 4.991 1.16345 
0.021375 0.00703125 1.91565 1.58548e+21 1.05435e-05 3.14226 1.77139 2.9974 
0.022125 0.00703125 2.01878 1.57904e+21 1.05006e-05 -1.87875 -3.22748 0.839989 
0.018375 0.00796875 2.00253 1.56512e+21 1.04081e-05 0.203294 -3.36132 0.316683 
0.019125 0.00796875 1.97707 1.57365e+21 1.04647e-05 3.49596 1.29318 -4.55295 
0.021375 0.00759375 2.06278 1.48741e+21 9.8913e-06 4.22031 -0.539492 -1.3226 
0.022125 0.00759375 2.0129 1.5679e+21 1.04265e-05 -1.24459 1.13077 0.311402 
0.021375 0.00778125 2.00835 1.49375e+21 9.93345e-06 3.55914 -0.566654 0.513749 
0.022125 0.00778125 1.97966 1.57666e+21 1.04848e-05 1.08715 0.125982 -2.42243 
0.021375 0.00796875 1.95463 1.58075e+21 1.0512e-05 1.75779 -0.141958 -1.47709 
0.022125 0.00796875 2.00304 1.58501e+21 1.05403e-05 3.64198 -1.28838 0.153925 
0.022875 0.00796875 2.00246 1.5211e+21 1.01153e-05 0.901647 1.70843 0.486257 
0.023625 0.00796875 1.9264 1.47281e+21 9.79417e-06 4.21993 -1.51302 -3.42305 
0.022875 0.00815625 2.05524 1.55551e+21 1.03441e-05 0.961206 -3.90273 -0.696592 
0.023625 0.00815625 1.999 1.57216e+21 1.04549e-05 1.67507 2.60221 -1.08006 
0.019125 0.00853125 1.94932 1.41682e+21 9.42189e-06 0.905517 0.32846 0.859153 
0.018375 0.0210937 0 0 0 0 0 0 
0.018375 0.0212812 0 0 0 0 0 0 
0.019875 0.0216562 2.11466 1.53429e+21 1.0203e-05 2.2 0.866361 0.326656 
0.020625 0.0216562 1.88049 1.53429e+21 1.0203e-05 -0.508885 2.68279 -0.683672 
0.021375 0.0216562 2.07182 1.54502e+21 1.02744e-05 -2.75726 1.12095 1.12274 
0.022125 0.0216562 1.98063 1.53787e+21 1.02268e-05 2.18564 2.0943 1.01071 
0.0249375 0.0157969 1.98812 1.61345e+21 1.07294e-05 -2.42182 -1.05401 -3.24215 
0.0253125 0.0157969 1.99521 1.5504e+21 1.03102e-05 5.11933 0.108445 1.98774 
0.0249375 0.0158906 1.98611 1.59253e+21 1.05903e-05 0.714309 -1.67876 2.40916 
0.0253125 0.0158906 1.95134 1.52131e+21 1.01167e-05 3.31197 0.17273 1.88686 
0.0279375 0.0167344 2.10292 1.56364e+21 1.03982e-05 2.33072 -1.48474 -5.07759 
0.0283125 0.0167344 1.98887 1.53388e+21 1.02003e-05 0.49157 -2.86161 1.74921 
0.0279375 0.0168281 1.97477 1.5899e+21 1.05728e-05 5.0866 0.75369 1.97162 
0.0283125 0.0168281 2.04946 1.57914e+21 1.05013e-05 1.14734 -0.775017 -0.780486 
0.0286875 0.0167344 2.04364 1.50953e+21 1.00384e-05 -0.719623 2.25704 -4.029 
0.0290625 0.0167344 2.00637 1.51494e+21 1.00744e-05 6.96766 -3.98422 4.55232 
0.0286875 0.0168281 1.9845 1.48767e+21 9.89301e-06 -0.643851 4.68603 1.01439 
0.0290625 0.0168281 2.032 1.56031e+21 1.0376e-05 -3.57206 0.435007 -4.07751 
0.0249375 0.0187969 1.93111 1.56306e+21 1.03944e-05 0.073183 1.01339 3.62874 
0.0253125 0.0187969 2.01208 1.59437e+21 1.06026e-05 0.64901 4.2908 0.0596208 
0.0249375 0.0188906 1.86808 1.65835e+21 1.10281e-05 -3.24247 -0.565569 -3.99946 
0.0253125 0.0188906 2.00698 1.61282e+21 1.07253e-05 -3.48853 -2.72111 1.69815 
0.0294375 0.0201094 1.93343 1.49932e+21 9.97045e-06 -1.29748 -1.45135 1.75369 
0.0298125 0.0201094 2.06087 1.56235e+21 1.03896e-05 -3.76605 -1.98525 -1.35554 
0.0294375 0.0202031 1.93694 1.40721e+21 9.35794e-06 -0.58225 -2.72495 1.18674 
0.0298125 0.0202031 2.02718 1.54166e+21 1.0252e-05 -4.86546 0.0278784 -0.879505 
0.0279375 0.0202969 2.01105 1.49662e+21 9.95251e-06 -0.202887 1.42011 -2.91761 
0.0283125 0.0202969 1.96451 1.59253e+21 1.05903e-05 0.402174 0.687546 -0.711569 
0.0279375 0.0203906 2.0075 1.60741e+21 1.06893e-05 -2.82584 4.16899 1.79217 
0.0283125 0.0203906 1.97078 1.65181e+21 1.09845e-05 1.36998 -1.82747 1.52929 
0.0286875 0.0206719 2.04084 1.5724e+21 1.04564e-05 -1.19737 1.62149 0.649176 
0.0290625 0.0206719 2.10753 1.6162e+21 1.07477e-05 -0.171086 -0.459719 0.386953 
0.0286875 0.0207656 2.09036 1.6198e+21 1.07717e-05 1.6015 2.44954 -5.3825 
0.0290625 0.0207656 2.02059 1.49554e+21 9.94531e-06 -1.25685 5.72488 0.197344 
0.0264375 0.0210469 2.017 1.50997e+21 1.00413e-05 8.75496 -1.58528 -2.37462 
0.0268125 0.0210469 2.00027 1.49276e+21 9.92684e-06 -0.547255 0.0471513 -1.81449 
0.0264375 0.0211406 1.98032 1.484e+21 9.86858e-06 -2.51103 -2.1067 -4.22205 
0.0211875 0.0171094 2.04956 1.40765e+21 9.36088e-06 -1.81015 -1.02961 3.01913 
0.0215625 0.0171094 2.00669 1.63785e+21 1.08917e-05 1.46769 1.31864 -2.01677 
0.0211875 0.0172031 2.01204 1.50524e+21 1.00099e-05 -3.35118 -3.04773 1.6993 
0.0215625 0.0172031 1.9551 1.42366e+21 9.46737e-06 1.19499 0.70056 0.33196 
0.0196875 0.0174844 1.94322 1.63638e+21 1.08819e-05 -0.00338893 2.2417 -0.8009 
0.0200625 0.0174844 1.96767 1.43442e+21 9.53891e-06 -3.3696 -1.37866 -0.564097 
0.0196875 0.0175781 2.0455 1.57357e+21 1.04642e-05 3.25142 4.08052 2.0434 
0.0200625 0.0175781 1.86616 1.52721e+21 1.0156e-05 -1.18858 2.51907 -1.96272 
0.0196875 0.0187969 1.96648 1.58233e+21 1.05225e-05 3.28747 1.53157 -2.54722 
0.0200625 0.0187969 1.97905 1.55102e+21 1.03143e-05 0.214637 -2.55685 -0.423662 
0.0196875 0.0188906 2.04559 1.61043e+21 1.07093e-05 4.13302 -0.943603 -0.502351 
0.0200625 0.0188906 1.88626 1.40673e+21 9.35472e-06 0.451417 1.96172 0.258215 
0.0204375 0.0208594 1.95111 1.54741e+21 1.02903e-05 -5.30883 -0.525819 0.780412 
0.0208125 0.0208594 1.89653 1.55175e+21 1.03192e-05 -5.74765 -2.60191 -0.985073 
0.0204375 0.0209531 1.99696 1.49944e+21 9.97126e-06 -0.116333 -1.31026 1.12204 
0.0208125 0.0209531 2.1205 1.54265e+21 1.02586e-05 -1.47716 -0.00227644 -0.148472 
0.01575 0.0016875 1.93654 1.52244e+21 1.01242e-05 -1.91111 1.09445 0.0699827 
0.01725 0.0016875 1.94397 1.58615e+21 1.05479e-05 6.88085 -1.28906 -1.85877 
0.01575 0.0020625 1.90523 1.55292e+21 1.03269e-05 -3.21842 -0.505825 1.39663 
0.01725 0.0020625 1.93587 1.54606e+21 1.02813e-05 0.979472 -1.81854 0.638342 
0.01275 0.0031875 2.04497 1.5412e+21 1.0249e-05 1.92901 -3.31969 1.9557 
0.01275 0.0035625 1.91821 1.51151e+21 1.00515e-05 -4.48416 -2.53561 -3.31795 
0.01875 0.0016875 2.00592 1.6046e+21 1.06706e-05 0.400409 3.02569 -0.180836 
0.02775 0.0016875 2.01435 1.45202e+21 9.65591e-06 0.45952 5.51239 0.50064 
0.025875 0.00534375 2.01512 1.62657e+21 1.08167e-05 2.29885 0.123518 3.07263 
0.026625 0.00534375 2.01728 1.60115e+21 1.06477e-05 2.50588 -0.379827 0.246037 
0.025875 0.00553125 2.09174 1.45889e+21 9.70165e-06 -4.88927 -5.09316 1.13736 
0.026625 0.00553125 1.97235 1.48549e+21 9.87854e-06 -0.169775 -0.220939 0.469415 
0.025875 0.00609375 1.93336 1.56753e+21 1.04241e-05 -0.787423 1.42536 3.90625 
0.026625 0.00609375 1.90895 1.55267e+21 1.03253e-05 3.52159 0.636183 -1.74982 
0.025875 0.00628125 2.09394 1.45227e+21 9.65758e-06 2.0238 -2.97078 1.18547 
0.026625 0.00628125 2.00587 1.58921e+21 1.05682e-05 -0.309651 -3.31151 -1.26091 
0.024375 0.00684375 1.94256 1.54954e+21 1.03044e-05 2.51067 1.78045 4.20547 
0.025125 0.00684375 2.05363 1.54623e+21 1.02825e-05 1.11847 1.87322 2.89683 
0.024375 0.00703125 1.99362 1.48569e+21 9.87981e-06 0.849774 1.33131 -0.877703 
0.028875 0.00721875 2.03291 1.43612e+21 9.55021e-06 6.10545 -2.046 -0.625851 
0.029625 0.00721875 1.98795 1.52235e+21 1.01236e-05 -1.71525 -1.33305 0.37741 
0.027375 0.00778125 2.05453 1.4923e+21 9.92378e-06 -1.42297 -0.234734 1.92302 
0.024375 0.00834375 1.97406 1.50428e+21 1.00034e-05 -1.86545 4.34412 -2.66072 
0.025125 0.00834375 1.94435 1.55311e+21 1.03282e-05 1.7785 -2.33196 1.29859 
0.029625 0.00834375 1.92617 1.53954e+21 1.0238e-05 -0.64453 0.973858 0.534194 
0.028875 0.00853125 1.95177 1.5402e+21 1.02423e-05 0.0772227 1.79341 -2.50937 
0.007875 0.00271875 1.92691 2.24793e+21 1.49487e-05 0.451493 15.1508 2.35736 
0.008625 0.00271875 1.91075 2.36032e+21 1.56961e-05 -2.07939 10.2557 -1.4999 
0.007875 0.00290625 1.84833 2.15352e+21 1.43209e-05 -2.67518 15.3314 0.684687 
0.008625 0.00290625 1.98287 2.25477e+21 1.49943e-05 -2.05421 16.8898 3.10542 
0.007875 0.00309375 1.97154 2.11446e+21 1.40612e-05 1.89792 10.1835 3.36789 
0.008625 0.00309375 1.94926 2.173e+21 1.44504e-05 -3.52542 10.8281 1.73196 
0.007875 0.00328125 1.97584 2.22128e+21 1.47715e-05 -1.16124 10.0303 -2.93781 
0.008625 0.00328125 1.95338 2.19024e+21 1.45651e-05 -1.17339 17.3094 4.59331 
0.007875 0.00384375 1.91967 2.03755e+21 1.35497e-05 -1.62059 5.49991 0.778957 
0.008625 0.00384375 1.92937 2.13766e+21 1.42155e-05 3.3279 9.21588 1.31394 
0.007875 0.00403125 1.9664 2.01858e+21 1.34236e-05 -3.45251 7.95065 0.126266 
0.008625 0.00403125 1.96012 2.09719e+21 1.39463e-05 -2.98395 8.23517 1.31613 
0.006375 0.00421875 1.98385 2.19815e+21 1.46177e-05 -0.105626 1.48371 0.386489 
0.007125 0.00421875 2.04592 2.05496e+21 1.36655e-05 1.96995 2.40836 2.65888 
0.006375 0.00440625 1.87484 1.90715e+21 1.26825e-05 -4.13192 5.06036 0.329305 
0.007125 0.00440625 1.99027 1.96751e+21 1.3084e-05 -1.85287 5.67836 -1.32701 
0.010875 0.00946875 2.0546 1.8741e+21 1.24628e-05 3.94879 4.01747 -0.261241 
0.011625 0.00946875 1.90341 1.43636e+21 9.55177e-06 10.4251 12.016 -1.42721 
0.006375 0.0102187 1.97312 1.69661e+21 1.12825e-05 -2.23427 -1.26763 0.405197 
0.006375 0.0104062 2.01471 1.79452e+21 1.19335e-05 -0.394538 3.85238 -0.948962 
0.013875 0.00534375 2.03351 1.46561e+21 9.74629e-06 -2.57534 0.0955164 4.50337 
0.014625 0.00534375 1.93411 1.51432e+21 1.00702e-05 -0.810765 3.01543 2.09655 
0.013875 0.00553125 1.8595 1.58575e+21 1.05453e-05 0.733987 -2.6365 0.263671 
0.014625 0.00553125 2.1224 1.57757e+21 1.04908e-05 -2.79169 -1.76234 -2.75413 
0.015375 0.00571875 2.05978 1.48824e+21 9.89683e-06 3.4084 3.01925 1.37498 
0.016125 0.00571875 2.0349 1.59116e+21 1.05812e-05 6.16435 -1.29089 -0.418151 
0.015375 0.00590625 1.94601 1.49657e+21 9.95219e-06 1.29185 -3.95386 3.99665 
0.016125 0.00590625 1.99281 1.51573e+21 1.00796e-05 -0.267748 -1.35383 0.242237 
0.013875 0.00646875 2.00986 1.58513e+21 1.05411e-05 -0.913288 0.477847 0.35375 
0.014625 0.00646875 1.97004 1.47491e+21 9.80814e-06 0.67892 -1.44029 0.0350058 
0.013875 0.00665625 1.99891 1.49967e+21 9.97283e-06 4.39538 -0.0473287 1.09045 
0.015375 0.00609375 2.05787 1.51367e+21 1.00659e-05 -1.20198 -5.33967 -0.17058 
0.016125 0.00609375 1.94322 1.47838e+21 9.83123e-06 0.939421 -0.390608 -0.521591 
0.015375 0.00628125 2.15494 1.61623e+21 1.07479e-05 0.765473 -1.03911 -1.11797 
0.016125 0.00628125 1.96012 1.52794e+21 1.01608e-05 2.62692 0.887814 2.14896 
0.016875 0.00646875 1.99688 1.62362e+21 1.07971e-05 1.23192 -0.0408625 -1.47668 
0.017625 0.00646875 1.79219 1.54139e+21 1.02503e-05 1.72341 -0.122465 2.05592 
0.016875 0.00665625 2.01144 1.58809e+21 1.05608e-05 1.96259 1.0362 -0.496059 
0.017625 0.00665625 2.07209 1.55748e+21 1.03573e-05 -0.909295 0.680781 -1.77784 
0.016125 0.00721875 1.98804 1.58663e+21 1.05511e-05 0.0671664 -3.01709 1.97007 
0.016125 0.00740625 2.01364 1.60759e+21 1.06905e-05 2.21567 1.53177 -1.80757 
0.012375 0.00759375 1.86135 1.38607e+21 9.21735e-06 -10.9967 4.40236 -3.65861 
0.012375 0.00778125 1.8126 1.52721e+21 1.01559e-05 -6.3033 -8.28599 -7.03698 
0.013125 0.00778125 1.9855 1.51702e+21 1.00882e-05 0.705848 -1.82639 0.556334 
0.013875 0.00759375 1.97729 1.50381e+21 1.00003e-05 -3.14191 -4.26499 1.10488 
0.014625 0.00759375 2.02841 1.54554e+21 1.02778e-05 -0.670099 2.2311 -0.15907 
0.012375 0.00796875 1.79678 1.44866e+21 9.63361e-06 7.53129 -0.874077 6.46562 
0.013125 0.00796875 1.96373 1.64892e+21 1.09653e-05 1.16029 -0.719244 1.41859 
0.012375 0.00815625 1.94605 1.68594e+21 1.12115e-05 -0.0820367 -14.4873 -15.5787 
0.012375 0.00946875 2.104 1.47218e+21 9.78999e-06 1.95165 -3.23822 -0.129118 
0.022875 0.00534375 2.06235 1.62445e+21 1.08026e-05 1.26825 2.05688 0.750313 
0.023625 0.00534375 1.99011 1.49314e+21 9.92938e-06 0.23665 -0.134197 4.02818 
0.022875 0.00553125 1.96796 1.54074e+21 1.02459e-05 6.64 3.61645 -0.118995 
0.023625 0.00553125 1.96524 1.4814e+21 9.85132e-06 2.33764 -0.22389 -4.25689 
0.021375 0.00571875 1.9937 1.61886e+21 1.07654e-05 5.01451 -1.82012 3.29209 
0.021375 0.00590625 2.04106 1.54256e+21 1.0258e-05 -0.280433 -1.49057 4.08668 
0.022125 0.00590625 2.02138 1.54831e+21 1.02962e-05 -2.86432 2.3117 -0.723022 
0.018375 0.00646875 1.9783 1.55364e+21 1.03317e-05 1.49475 1.88783 1.57633 