ITEM: TIMESTEP
500000
ITEM: NUMBER OF CELLS
27550
ITEM: BOX BOUNDS oo ao pp
0 0.12
0 0.03
-0.1 0.1
ITEM: CELLS xc yc f_out[1] f_out[2] f_out[3] f_out[4] f_out[5] f_out[6] 
0.003 0.00375 0 0 0 0 0 0 
0.003 0.00525 0 0 0 0 0 0 
0.003 0.00675 0 0 0 0 0 0 
0.003 0.00825 0 0 0 0 0 0 
0.003 0.00975 0 0 0 0 0 0 
0.003 0.01125 0 0 0 0 0 0 
0.003 0.01275 0 0 0 0 0 0 
0.003 0.01425 0 0 0 0 0 0 
0.003 0.01575 0 0 0 0 0 0 
0.003 0.01725 0 0 0 0 0 0 
0.003 0.01875 0 0 0 0 0 0 
0.003 0.02025 0 0 0 0 0 0 
0.003 0.02175 0 0 0 0 0 0 
0.003 0.02325 0 0 0 0 0 0 
0.027 0.02325 0 0 0 0 0 0 
0.003 0.02475 0 0 0 0 0 0 
0.027 0.02475 0 0 0 0 0 0 
0.003 0.02625 0 0 0 0 0 0 
0.027 0.02625 0 0 0 0 0 0 
0.003 0.02775 0 0 0 0 0 0 
0.027 0.02775 0 0 0 0 0 0 
0.003 0.02925 0 0 0 0 0 0 
0.027 0.02925 0 0 0 0 0 0 
0.009 0.01425 0 0 0 0 0 0 
0.009 0.01575 0 0 0 0 0 0 
0.009 0.01725 0 0 0 0 0 0 
0.009 0.01875 0 0 0 0 0 0 
0.009 0.02025 0 0 0 0 0 0 
0.009 0.02175 0 0 0 0 0 0 
0.009 0.02325 0 0 0 0 0 0 
0.009 0.02475 0 0 0 0 0 0 
0.009 0.02625 0 0 0 0 0 0 
0.009 0.02775 0 0 0 0 0 0 
0.009 0.02925 0 0 0 0 0 0 
0.015 0.01425 0 0 0 0 0 0 
0.015 0.01575 0 0 0 0 0 0 
0.015 0.01725 0 0 0 0 0 0 
0.015 0.01875 0 0 0 0 0 0 
0.015 0.02025 0 0 0 0 0 0 
0.015 0.02175 0 0 0 0 0 0 
0.015 0.02325 0 0 0 0 0 0 
0.015 0.02475 0 0 0 0 0 0 
0.015 0.02625 0 0 0 0 0 0 
0.015 0.02775 0 0 0 0 0 0 
0.015 0.02925 0 0 0 0 0 0 
0.021 0.02325 0 0 0 0 0 0 
0.021 0.02475 0 0 0 0 0 0 
0.021 0.02625 0 0 0 0 0 0 
0.021 0.02775 0 0 0 0 0 0 
0.021 0.02925 0 0 0 0 0 0 
0.0015 0.000375 0 0 0 0 0 0 
0.0015 0.001125 0 0 0 0 0 0 
0.0255 0.022125 0 0 0 0 0 0 
0.0285 0.022125 0 0 0 0 0 0 
0.0105 0.000375 2.03067 3.2138e+21 2.13717e-05 0.966382 -0.0343342 -4.76672 
0.0105 0.001125 2.0492 3.12126e+21 2.07564e-05 6.74639 7.84791 -1.40347 
0.0075 0.013125 0 0 0 0 0 0 
0.0105 0.013125 0 0 0 0 0 0 
0.0135 0.013125 0 0 0 0 0 0 
0.0165 0.013125 0 0 0 0 0 0 
0.0195 0.022125 0 0 0 0 0 0 
0.0225 0.022125 0 0 0 0 0 0 
0.00375 0.0001875 1.9089 7.45938e+21 4.96049e-05 30.5543 5.50797 2.21405 
0.00525 0.0001875 1.87308 6.05119e+21 4.02404e-05 39.3914 0.215703 0.985541 
0.01125 0.0084375 0 0 0 0 0 0 
0.01125 0.0088125 0 0 0 0 0 0 
0.01125 0.0091875 0 0 0 0 0 0 
0.01275 0.0031875 1.91088 1.93233e+21 1.285e-05 0.565276 1.13669 1.29976 
0.02325 0.0016875 2.04478 1.96676e+21 1.3079e-05 3.28856 -2.1105 -2.18637 
0.0225 0.000375 1.9978 1.9391e+21 1.2895e-05 3.21327 3.61297 -2.41671 
0.01125 0.0046875 0 0 0 0 0 0 
0.01125 0.0050625 0 0 0 0 0 0 
0.01125 0.0061875 0 0 0 0 0 0 
0.01125 0.0065625 0 0 0 0 0 0 
0.003375 0.00084375 1.94991 7.94223e+21 5.28159e-05 22.9876 -2.71959 -4.04684 
0.004125 0.00084375 1.95271 7.35063e+21 4.88817e-05 23.4777 -1.49307 2.68608 
0.003375 0.00103125 1.94755 8.33213e+21 5.54086e-05 14.8117 -2.07309 -1.46098 
0.004125 0.00103125 1.98234 7.38599e+21 4.91168e-05 24.8094 -4.29503 -0.87321 
0.003375 0.00121875 1.88361 8.55318e+21 5.68786e-05 19.3926 -4.15361 -2.46899 
0.004125 0.00121875 1.99842 7.5962e+21 5.05147e-05 18.3215 0.297161 -1.05321 
0.003375 0.00140625 1.89134 8.14344e+21 5.41539e-05 17.6335 0.453888 1.3413 
0.004125 0.00140625 2.05541 6.96968e+21 4.63484e-05 16.8236 -2.94759 -1.17766 
0.004875 0.00121875 1.94978 5.96181e+21 3.9646e-05 20.6296 -1.12793 -2.71896 
0.005625 0.00121875 1.92887 5.95252e+21 3.95843e-05 30.8471 1.10809 0.985933 
0.004875 0.00140625 1.99955 6.57532e+21 4.37259e-05 18.1701 -1.45024 1.13798 
0.005625 0.00140625 1.83619 5.24738e+21 3.48951e-05 21.7739 -0.301771 1.06931 
0.024375 0.0216562 2.02828 1.96346e+21 1.3057e-05 2.13746 0.0818099 -1.60971 
0.025125 0.0216562 1.98799 1.90982e+21 1.27003e-05 0.332335 -1.09489 -1.36045 
0.025875 0.0216562 1.93732 1.91339e+21 1.27241e-05 0.285516 -0.617292 -3.82117 
0.026625 0.0216562 1.96019 1.80252e+21 1.19868e-05 0.587766 1.39304 -1.22867 
0.027375 0.0216562 2.03225 2.09579e+21 1.3937e-05 -0.791616 1.44867 -0.98342 
0.028125 0.0216562 1.94009 2.08506e+21 1.38657e-05 -0.619271 -6.13137 -0.948361 
0.028875 0.0216562 1.98778 1.81683e+21 1.20819e-05 1.847 -2.35024 -3.77588 
0.029625 0.0216562 1.96181 1.79179e+21 1.19154e-05 6.40229 -4.89579 0.296827 
0.006375 0.00084375 2.04827 4.4533e+21 2.96144e-05 36.1974 1.88687 -9.12964 
0.007125 0.00084375 2.11177 3.3668e+21 2.23892e-05 27.1799 6.36865 0.709221 
0.006375 0.00103125 1.82867 4.31307e+21 2.86819e-05 38.0052 9.39755 0.0499502 
0.007125 0.00103125 1.98496 3.35827e+21 2.23325e-05 31.5905 11.6364 2.53458 
0.007875 0.00271875 1.95779 2.54349e+21 1.69142e-05 6.80916 8.68882 -0.738685 
0.008625 0.00271875 2.03085 2.56014e+21 1.70249e-05 0.0207918 15.5657 -1.3641 
0.007875 0.00290625 2.03081 2.53127e+21 1.68329e-05 -2.46118 8.54651 -3.54844 
0.008625 0.00290625 2.04227 2.74935e+21 1.82831e-05 -0.565821 8.30157 0.950094 
0.007875 0.00346875 2.12434 2.30677e+21 1.534e-05 -3.16355 4.11994 -0.608762 
0.008625 0.00346875 2.03416 2.64936e+21 1.76182e-05 -2.23462 8.24671 2.48285 
0.007875 0.00365625 2.02031 2.58778e+21 1.72088e-05 2.33899 12.551 0.646503 
0.008625 0.00365625 1.9393 2.43611e+21 1.62001e-05 0.260713 9.27166 3.49416 
0.007875 0.00384375 2.00391 2.57344e+21 1.71134e-05 1.72044 10.8325 1.30855 
0.008625 0.00384375 1.97194 2.42622e+21 1.61343e-05 -2.49591 7.18486 -0.0362463 
0.007875 0.00403125 1.99054 2.4369e+21 1.62054e-05 -2.29974 7.07632 7.67693 
0.007875 0.00459375 2.00229 2.4169e+21 1.60724e-05 1.57457 4.3724 3.203 
0.007875 0.00478125 2.02992 2.52569e+21 1.67959e-05 -3.17073 9.71065 -1.68882 
0.008625 0.00496875 1.9881 2.33244e+21 1.55107e-05 -0.802255 6.26903 -0.0203967 
0.007875 0.00515625 2.02028 2.31347e+21 1.53846e-05 -1.29643 1.86079 -1.13955 
0.008625 0.00515625 1.97001 2.46492e+21 1.63917e-05 -0.917124 5.68327 -0.110933 
0.007875 0.00553125 1.96614 2.36533e+21 1.57295e-05 -2.91535 9.2436 -1.63823 
0.008625 0.00571875 1.97915 2.36694e+21 1.57402e-05 0.30366 4.71568 2.42142 
0.006375 0.00684375 2.0221 2.33485e+21 1.55268e-05 1.61006 5.19965 0.377 
0.006375 0.00703125 2.03773 2.41142e+21 1.6036e-05 4.15374 -1.72594 -1.45925 
0.006375 0.00721875 2.16128 2.41052e+21 1.603e-05 -1.89279 0.277419 0.663293 
0.006375 0.00740625 2.07504 2.18045e+21 1.45e-05 -1.97268 4.29372 3.2879 
0.006375 0.00759375 2.00793 2.32222e+21 1.54428e-05 0.501453 1.16319 0.610645 
0.006375 0.00796875 1.93446 2.31946e+21 1.54244e-05 0.639182 3.22374 -0.41385 
0.006375 0.00815625 2.0122 2.19329e+21 1.45854e-05 1.04161 1.79042 -0.868465 
0.006375 0.00834375 2.08691 2.27117e+21 1.51033e-05 -0.799025 2.18958 -1.71971 
0.006375 0.00871875 1.99289 2.24893e+21 1.49554e-05 -0.957395 3.72307 -1.75003 
0.006375 0.00890625 2.02112 2.2278e+21 1.48148e-05 -2.80876 2.17927 -3.73127 
0.006375 0.00946875 2.00138 2.0327e+21 1.35175e-05 -0.726973 -0.105053 -1.03076 
0.006375 0.00965625 1.95565 2.15146e+21 1.43072e-05 -1.3308 2.51964 0.791101 
0.010125 0.00946875 1.96185 1.99038e+21 1.3236e-05 2.40856 -0.870898 -0.076247 
0.006375 0.0105937 2.04064 2.17139e+21 1.44398e-05 -0.125941 -1.51155 -0.205224 
0.006375 0.0126563 2.05907 2.15347e+21 1.43206e-05 -1.27951 2.23614 -0.669949 
0.017625 0.00646875 1.97699 1.95605e+21 1.30077e-05 -0.15107 0.91989 -1.23276 
0.016875 0.00665625 2.01906 1.83633e+21 1.22116e-05 1.77933 -3.14803 -0.480159 
0.019125 0.00721875 1.97306 2.09931e+21 1.39604e-05 3.6028 0.435244 1.64428 
0.019875 0.0216562 2.0668 1.90266e+21 1.26527e-05 2.38301 -1.06054 0.410154 
0.020625 0.0216562 2.05014 2.08864e+21 1.38894e-05 -2.40242 3.74373 -2.50683 
0.021375 0.0216562 1.94188 1.97777e+21 1.31522e-05 -3.03992 -0.564492 -0.401594 
0.022125 0.0216562 2.09145 2.09579e+21 1.3937e-05 -1.25759 -1.11261 -4.082 
0.022875 0.0216562 2.09853 2.04214e+21 1.35803e-05 0.229363 -1.73399 1.75851 
0.023625 0.0216562 2.04422 1.87047e+21 1.24387e-05 -2.52368 1.7201 0.0579437 
0.0135 0.000375 1.94037 1.95353e+21 1.2991e-05 3.22459 4.32792 -1.09033 
0.0165 0.000375 2.0104 1.97871e+21 1.31584e-05 3.42557 -0.833731 -2.26631 
0.02625 0.0016875 2.04324 2.08581e+21 1.38706e-05 3.54123 0.387747 1.33328 
0.01125 0.0054375 0 0 0 0 0 0 
0.01125 0.0058125 0 0 0 0 0 0 
0.01125 0.0076875 0 0 0 0 0 0 
0.01125 0.0080625 0 0 0 0 0 0 
0.01275 0.0024375 2.03315 1.89354e+21 1.2592e-05 -1.70029 -3.55165 -1.018 
0.01275 0.0028125 2.00437 1.99191e+21 1.32462e-05 0.325339 -1.2806 2.35831 
0.004875 0.00084375 1.83635 6.72019e+21 4.46893e-05 31.5363 -1.59684 -0.0835214 
0.005625 0.00084375 1.88947 5.2447e+21 3.48772e-05 35.6877 7.06973 5.78171 
0.004875 0.00103125 1.97868 6.65068e+21 4.4227e-05 24.1935 -4.55588 0.433037 
0.005625 0.00103125 1.85306 5.59711e+21 3.72208e-05 36.071 -2.28522 -3.51318 
0.024375 0.00496875 2.03811 1.97711e+21 1.31478e-05 0.65974 5.20042 3.38156 
0.025125 0.00515625 2.01526 1.98423e+21 1.31951e-05 2.49222 -3.61995 2.85699 
0.029625 0.00496875 1.98897 1.94977e+21 1.2966e-05 2.86055 3.72415 -2.04379 
0.028875 0.00515625 1.95085 1.90521e+21 1.26697e-05 0.959653 -3.22619 -2.39824 
0.026625 0.00534375 1.99581 2.03745e+21 1.3549e-05 0.392346 -0.564251 -0.995197 
0.025875 0.00571875 1.93441 1.94738e+21 1.29501e-05 -1.42522 -0.57179 -3.12468 
0.026625 0.00571875 2.06758 1.96322e+21 1.30554e-05 0.557578 3.75605 -2.36852 
0.026625 0.00590625 1.97918 1.91431e+21 1.27301e-05 2.52563 0.177161 1.43721 
0.028875 0.00609375 1.96946 1.9947e+21 1.32647e-05 2.35614 -1.51865 -0.129381 
0.029625 0.00609375 2.0787 1.93712e+21 1.28819e-05 4.65412 0.880225 -1.57447 
0.006375 0.00346875 1.94943 2.44095e+21 1.62323e-05 -1.02981 4.08444 -0.201832 
0.007125 0.00346875 1.95917 2.59389e+21 1.72494e-05 -5.10367 6.61229 -1.91042 
0.006375 0.00365625 2.02742 2.5015e+21 1.6635e-05 -1.48771 5.82605 7.94978 
0.007125 0.00365625 2.08081 2.48563e+21 1.65295e-05 0.516391 7.6988 -0.53834 
0.006375 0.00459375 1.93195 2.4206e+21 1.6097e-05 -2.54625 2.35213 -1.72779 
0.006375 0.00478125 2.02373 2.33011e+21 1.54952e-05 -1.39635 2.50884 -1.17865 
0.006375 0.00571875 2.01049 2.28209e+21 1.51759e-05 1.67674 4.72743 1.53952 
0.006375 0.00590625 2.01898 2.1809e+21 1.4503e-05 -4.82687 3.75222 -1.34662 
0.006375 0.00646875 1.99234 2.3882e+21 1.58815e-05 1.43716 1.06161 -4.71027 
0.006375 0.00665625 1.96219 2.23803e+21 1.48829e-05 4.98022 2.9896 1.43425 
0.006375 0.00909375 2.04053 2.1772e+21 1.44784e-05 -1.26812 1.46749 -1.59965 
0.006375 0.00928125 1.95099 2.18123e+21 1.45052e-05 -2.6692 0.701604 -1.18532 
0.006375 0.00984375 1.86044 2.23982e+21 1.48948e-05 0.00194077 4.45774 3.45918 
0.006375 0.0100312 2.02523 2.25931e+21 1.50244e-05 2.3621 7.76955 -2.41738 
0.016875 0.00496875 2.0316 2.08188e+21 1.38445e-05 2.50701 -0.453797 0.526431 
0.017625 0.00496875 2.04987 2.12061e+21 1.4102e-05 -1.68725 -1.20177 2.47198 
0.016875 0.00515625 2.06825 2.02154e+21 1.34433e-05 -1.64726 -0.14574 -2.23407 
0.017625 0.00515625 2.03909 1.93375e+21 1.28594e-05 1.60658 -3.94862 -1.81669 
0.015375 0.00571875 2.04527 1.95728e+21 1.30159e-05 0.340947 -2.33734 0.530131 
0.016125 0.00571875 1.97886 1.94936e+21 1.29633e-05 -1.92321 1.04036 -0.403027 
0.015375 0.00590625 2.02676 1.95263e+21 1.2985e-05 -2.11187 0.328153 -3.05469 
0.013875 0.00609375 2.00234 1.87583e+21 1.24743e-05 -1.13047 1.24766 0.305308 
0.014625 0.00628125 2.0249 2.00903e+21 1.336e-05 2.02472 -0.00725511 -0.886645 
0.018375 0.00571875 2.05817 1.9553e+21 1.30027e-05 -0.370566 -1.00726 1.90746 
0.019125 0.00571875 2.01121 1.96322e+21 1.30554e-05 2.73994 -0.784436 -1.24606 
0.018375 0.00590625 2.01835 2.0082e+21 1.33545e-05 -1.78284 1.50633 -0.604865 
0.019875 0.00590625 1.9902 1.9967e+21 1.32781e-05 1.51923 -3.78394 1.43864 
0.019125 0.00646875 1.94634 1.90531e+21 1.26703e-05 2.64935 2.57017 1.82027 
0.021375 0.00609375 2.06449 1.99098e+21 1.324e-05 0.966953 1.53682 2.75495 
0.022125 0.00609375 2.01869 1.86469e+21 1.24002e-05 2.59661 1.35939 -2.26692 
0.022125 0.00628125 1.99596 2.05768e+21 1.36836e-05 4.89346 2.43286 -2.40171 
0.022125 0.00646875 1.93612 2.03128e+21 1.3508e-05 0.79443 -0.457733 0.740466 
0.020625 0.00684375 2.03644 1.91501e+21 1.27348e-05 2.58431 -0.0776432 2.24588 
0.018375 0.0154687 0 0 0 0 0 0 
0.018375 0.0156563 0 0 0 0 0 0 
0.018375 0.0195938 0 0 0 0 0 0 
0.018375 0.0197812 0 0 0 0 0 0 
0.018375 0.0199687 0 0 0 0 0 0 
0.018375 0.0201562 0 0 0 0 0 0 
0.018375 0.0207187 0 0 0 0 0 0 
0.018375 0.0209062 0 0 0 0 0 0 
0.02175 0.0009375 1.97322 1.90137e+21 1.26441e-05 -4.5623 1.78368 -1.38319 
0.02325 0.0009375 1.95193 2.02511e+21 1.3467e-05 2.76353 -1.34622 1.55846 
0.02325 0.0013125 2.03802 2.13635e+21 1.42067e-05 -1.68569 1.78324 1.21075 
0.0264375 0.0180469 2.03389 2.03942e+21 1.35621e-05 0.0521824 1.4767 0.160526 
0.0268125 0.0180469 1.98433 1.95915e+21 1.30283e-05 0.867658 0.511206 -2.18764 
0.0264375 0.0181406 1.99563 1.85918e+21 1.23636e-05 -1.11135 -0.908063 -0.00418775 
0.0268125 0.0181406 2.00699 1.85669e+21 1.2347e-05 0.373453 1.47879 3.70104 
0.0279375 0.0186094 1.95587 2.03372e+21 1.35243e-05 -1.8141 -2.25174 -1.94344 
0.0283125 0.0186094 1.99567 1.96804e+21 1.30875e-05 2.46155 1.3929 1.43031 
0.0279375 0.0187031 1.94781 1.91703e+21 1.27482e-05 -0.278412 4.91642 0.193904 
0.0283125 0.0187031 1.90489 1.88798e+21 1.25551e-05 1.15684 -0.696228 4.48237 
0.0286875 0.0202969 2.01688 2.00293e+21 1.33195e-05 2.98145 -0.836993 -1.54073 
0.0290625 0.0202969 1.99767 1.99177e+21 1.32453e-05 0.5498 0.712158 -3.96326 
0.0290625 0.0203906 1.92875 1.95375e+21 1.29925e-05 -0.380598 -1.94439 -1.27932 
0.0279375 0.0206719 1.94742 1.91622e+21 1.27429e-05 0.539293 -1.42216 -3.62975 
0.0283125 0.0206719 1.96954 1.98849e+21 1.32235e-05 3.07602 -2.06037 -1.01711 
0.0279375 0.0207656 2.04467 2.01221e+21 1.33812e-05 0.429848 -0.695624 0.406698 
0.0294375 0.0206719 1.96884 1.91841e+21 1.27574e-05 1.37106 -0.354531 1.69201 
0.0298125 0.0206719 2.06671 1.93593e+21 1.28739e-05 2.39957 0.288291 1.17705 
0.0294375 0.0207656 2.0089 1.86397e+21 1.23954e-05 -2.88366 -3.43112 2.63039 
0.0298125 0.0207656 2.00458 1.98387e+21 1.31928e-05 1.40236 -1.06196 -0.152612 
0.0286875 0.0210469 2.05997 1.93155e+21 1.28448e-05 -3.28774 -0.208233 2.89511 
0.0290625 0.0210469 2.01838 1.96166e+21 1.30451e-05 0.979353 -0.602773 0.111105 
0.0286875 0.0211406 2.01106 1.90371e+21 1.26597e-05 -0.995868 -1.7252 1.64125 
0.0290625 0.0211406 2.01815 1.87159e+21 1.24461e-05 2.16666 -2.06244 0.711871 
0.0084375 0.00773437 1.86047 2.36469e+21 1.57252e-05 -0.767986 -0.274132 1.82648 
0.0088125 0.00773437 2.00773 2.44078e+21 1.62312e-05 -5.19958 7.5787 -1.27575 
0.0084375 0.00782813 1.97759 2.40576e+21 1.59983e-05 -0.574804 3.17834 0.070003 
0.0088125 0.00782813 2.04442 2.02986e+21 1.34986e-05 -2.43398 3.94778 -4.14538 
0.0099375 0.0112969 1.95966 2.15196e+21 1.43105e-05 3.75806 0.71521 1.9828 
0.0103125 0.0112969 1.92733 2.15196e+21 1.43105e-05 1.40587 -0.0280728 1.73778 
0.0099375 0.0113906 2.03452 2.24155e+21 1.49063e-05 2.62345 -0.0303949 -1.94118 
0.0103125 0.0113906 1.91906 2.16604e+21 1.44042e-05 5.47036 -1.15812 2.12863 
0.0234375 0.0195469 2.10464 1.95934e+21 1.30296e-05 -1.62493 1.39981 0.428145 
0.0238125 0.0195469 1.97854 2.06356e+21 1.37227e-05 -2.62336 0.637014 -0.982191 
0.0234375 0.0196406 1.98696 1.89698e+21 1.26149e-05 -1.2598 2.73057 2.11209 
0.0238125 0.0196406 2.05595 1.88315e+21 1.25229e-05 1.24435 -1.82701 -1.79144 
0.0234375 0.0201094 2.01632 2.06888e+21 1.3758e-05 -0.21014 1.89573 2.62409 
0.0234375 0.0202031 1.88641 2.05928e+21 1.36942e-05 0.580269 -0.625934 0.627387 
0.0238125 0.0202031 2.05022 1.95172e+21 1.29789e-05 -2.87865 -1.8678 -1.63137 
0.0234375 0.0202969 2.02359 1.94939e+21 1.29635e-05 -2.21912 -0.846548 -3.55932 
0.0238125 0.0202969 2.03353 2.04753e+21 1.36161e-05 -1.70819 -3.99125 -4.39536 
0.0234375 0.0203906 1.92736 1.89381e+21 1.25938e-05 -2.82755 -0.20915 0.252679 
0.0238125 0.0203906 2.09396 1.98928e+21 1.32287e-05 -0.829176 0.126461 2.81295 
0.0226875 0.0210469 2.00451 1.97672e+21 1.31452e-05 -0.0440804 -0.30403 5.34073 
0.0230625 0.0210469 2.06241 1.88853e+21 1.25587e-05 2.87549 -1.89399 -1.91643 
0.0230625 0.0211406 1.96946 1.97652e+21 1.31439e-05 4.22978 -1.0283 2.48708 
0.0015 0.001875 0 0 0 0 0 0 
0.0015 0.002625 0 0 0 0 0 0 
0.0045 0.002625 0 0 0 0 0 0 
0.01125 0.0069375 0 0 0 0 0 0 
0.01125 0.0073125 0 0 0 0 0 0 
0.024375 0.00421875 2.01794 1.96374e+21 1.30589e-05 3.31004 -0.365404 1.37533 
0.025125 0.00421875 2.05146 2.09788e+21 1.39509e-05 -1.51722 2.20583 -1.75262 
0.024375 0.00440625 2.01881 1.90587e+21 1.2674e-05 -1.27319 0.516288 3.7013 
0.025125 0.00440625 1.9853 1.93412e+21 1.28619e-05 4.35424 6.12952 3.49028 
0.025875 0.00421875 1.98189 1.98521e+21 1.32016e-05 1.97788 4.52023 -3.77191 
0.026625 0.00421875 1.94044 1.93423e+21 1.28627e-05 0.398892 -0.308815 -2.64149 
0.025875 0.00440625 1.99325 1.89559e+21 1.26057e-05 5.5084 0.424463 -0.78015 
0.026625 0.00440625 1.96876 1.911e+21 1.27082e-05 -1.87186 3.47018 1.91279 
0.027375 0.00421875 1.97347 1.96911e+21 1.30946e-05 -3.45078 0.513814 2.0046 
0.028125 0.00421875 1.94856 1.96643e+21 1.30767e-05 5.94774 0.834801 0.19975 
0.027375 0.00440625 1.95845 1.91871e+21 1.27594e-05 3.92979 2.37095 1.61513 
0.028125 0.00440625 1.98242 1.82881e+21 1.21616e-05 1.69422 -0.284031 -2.16934 
0.024375 0.00459375 1.95198 1.98575e+21 1.32053e-05 -1.528 1.13647 -1.4411 
0.025125 0.00459375 1.89281 1.99314e+21 1.32544e-05 5.94099 -2.43672 -3.02645 
0.024375 0.00478125 1.9459 1.88421e+21 1.253e-05 -3.40858 3.11438 -3.23661 
0.024375 0.00534375 2.07604 1.99085e+21 1.32392e-05 3.90014 -1.30654 0.953708 
0.025125 0.00534375 2.06661 1.87013e+21 1.24364e-05 -0.70499 5.11589 -1.15677 
0.027375 0.00534375 2.0161 2.02898e+21 1.34927e-05 3.46386 1.5093 0.545673 
0.028125 0.00534375 2.03885 2.05439e+21 1.36617e-05 2.05789 4.36296 3.55367 
0.028125 0.00553125 2.06937 1.83743e+21 1.22189e-05 0.228819 -2.48654 0.310848 
0.024375 0.00609375 1.95745 1.89069e+21 1.25731e-05 2.53978 -0.581401 0.148637 
0.028875 0.00646875 1.9942 1.90006e+21 1.26354e-05 -1.25652 -0.0951584 2.13334 
0.029625 0.00646875 2.0122 1.97704e+21 1.31473e-05 0.950753 -0.314272 -3.49178 
0.028875 0.00665625 2.02961 1.89755e+21 1.26187e-05 0.303447 1.76751 2.15219 
0.025125 0.00703125 2.02448 1.97501e+21 1.31338e-05 2.7628 -1.17313 0.8217 
0.028875 0.00684375 1.96477 1.85548e+21 1.23389e-05 0.0659628 1.24082 1.69898 
0.028875 0.00721875 2.05673 1.93782e+21 1.28865e-05 1.07912 -2.36552 -2.30108 
0.029625 0.00721875 1.92135 1.98172e+21 1.31784e-05 2.22098 -0.209258 -0.514467 
0.006375 0.00271875 2.13755 2.41184e+21 1.60387e-05 1.19362 6.51119 -4.39629 
0.006375 0.00290625 2.13841 2.24893e+21 1.49554e-05 -1.49851 -0.754086 3.21847 
0.007125 0.00290625 1.93367 2.43002e+21 1.61596e-05 -1.33862 3.61502 3.37056 
0.007875 0.00309375 2.05218 2.53882e+21 1.68832e-05 1.82577 10.6817 -0.05643 
0.008625 0.00309375 2.0165 2.73636e+21 1.81968e-05 -2.18943 11.304 -0.501825 
0.007875 0.00328125 1.94553 2.62139e+21 1.74323e-05 2.34777 10.2562 4.73428 
0.008625 0.00328125 1.941 2.56965e+21 1.70882e-05 0.772412 9.88906 1.63986 
0.007875 0.00421875 2.10858 2.40907e+21 1.60203e-05 -0.850932 8.25565 -2.05415 
0.008625 0.00421875 1.91755 2.46005e+21 1.63593e-05 -3.23102 11.0924 -0.206853 
0.007875 0.00440625 2.02538 2.48379e+21 1.65172e-05 -3.01325 7.28691 2.14671 
0.008625 0.00440625 1.92136 2.46581e+21 1.63976e-05 -0.424117 11.5424 1.15781 
0.006375 0.00534375 1.9545 2.51769e+21 1.67426e-05 7.74686 0.754897 -1.68241 
0.007125 0.00534375 1.95566 2.36149e+21 1.57039e-05 -2.02198 6.88628 -0.571046 
0.006375 0.00553125 1.92084 2.32108e+21 1.54352e-05 -1.98181 3.70527 -0.0271975 
0.007125 0.00553125 1.96709 2.32441e+21 1.54573e-05 -0.0664201 4.37432 0.623066 
0.006375 0.00609375 2.08722 2.34711e+21 1.56083e-05 -2.49407 1.68932 0.275197 
0.006375 0.00628125 2.01417 2.36827e+21 1.5749e-05 -0.38389 -2.16766 2.00099 
0.016875 0.00384375 2.05262 2.12883e+21 1.41567e-05 2.79328 3.01133 2.66571 
0.017625 0.00384375 2.04956 1.97277e+21 1.31189e-05 2.11296 1.54593 -1.95533 
0.016875 0.00403125 2.12388 2.08596e+21 1.38717e-05 -2.57818 4.97805 -1.87651 
0.017625 0.00403125 2.06385 1.87821e+21 1.24901e-05 -1.20541 1.51566 -0.0901864 
0.015375 0.00421875 2.0113 1.99862e+21 1.32908e-05 -0.243436 7.21446 0.102669 
0.016125 0.00421875 1.9356 1.9557e+21 1.30054e-05 5.13262 -0.293443 -3.66026 
0.015375 0.00440625 2.01858 1.88532e+21 1.25374e-05 -1.09865 -1.58607 3.17395 
0.016125 0.00440625 1.98812 2.01375e+21 1.33914e-05 0.589605 -2.79796 1.21333 
0.014625 0.00534375 1.95165 1.92308e+21 1.27885e-05 -1.9497 1.11792 -0.690355 
0.013875 0.00553125 1.89126 2.05841e+21 1.36884e-05 -1.24499 3.83858 1.13067 
0.014625 0.00553125 1.99378 2.08706e+21 1.38789e-05 -1.50913 3.16582 -1.79621 
0.016875 0.00534375 2.04869 1.99721e+21 1.32814e-05 0.0173015 -1.34799 0.045889 
0.017625 0.00534375 2.01532 1.95697e+21 1.30138e-05 -0.664033 -1.93709 -1.96899 
0.016875 0.00553125 1.93822 2.14026e+21 1.42327e-05 -1.13797 2.39405 1.01474 
0.016875 0.00571875 1.9182 1.9929e+21 1.32528e-05 0.144169 -1.57078 -1.94494 
0.017625 0.00590625 1.9819 2.07144e+21 1.3775e-05 1.48705 -2.1039 -0.626501 
0.013875 0.00646875 1.99622 1.96479e+21 1.30659e-05 0.854636 0.457359 0.559695 
0.014625 0.00646875 1.96783 1.92455e+21 1.27983e-05 1.13053 1.32049 -3.08548 
0.016875 0.00609375 2.02307 2.03184e+21 1.35118e-05 0.326103 -0.486606 -0.0906165 
0.017625 0.00609375 2.04992 1.99284e+21 1.32524e-05 -1.76022 -1.1725 -3.0402 
0.017625 0.00628125 1.99226 1.86849e+21 1.24254e-05 -0.908423 1.68764 3.55029 
0.014625 0.00684375 2.02618 1.97289e+21 1.31197e-05 3.18121 0.945413 4.03968 
0.014625 0.00721875 2.01857 1.92371e+21 1.27927e-05 0.746522 -1.45361 1.73397 
0.017625 0.00721875 1.94893 1.88765e+21 1.25529e-05 6.33762 -1.464 0.464833 
0.012375 0.00871875 2.35167 1.36299e+21 9.06388e-06 -1.19896 -7.57209 6.477 
0.012375 0.00890625 1.89327 2.05863e+21 1.36899e-05 -1.37661 6.31322 -13.5922 
0.012375 0.00946875 2.06515 1.97158e+21 1.3111e-05 0.309389 2.96939 -5.15755 
0.018375 0.00459375 1.97985 1.88474e+21 1.25335e-05 3.77408 -0.334347 1.52844 
0.019125 0.00459375 1.99755 1.96604e+21 1.30742e-05 4.21493 2.84408 -0.736755 
0.019125 0.00478125 1.96892 1.90315e+21 1.26559e-05 1.2562 1.50119 -1.40244 
0.022875 0.00496875 1.91919 1.89055e+21 1.25722e-05 3.80584 -3.21693 1.79894 
0.022875 0.00515625 1.89967 2.00618e+21 1.33411e-05 -0.507661 -2.21575 1.00416 
0.023625 0.00515625 1.97073 1.9096e+21 1.26989e-05 1.52859 2.40021 -3.07975 
0.021375 0.00534375 1.95372 1.9845e+21 1.31969e-05 0.666728 -0.273392 -0.129935 
0.022125 0.00534375 1.98647 2.01627e+21 1.34082e-05 -0.4066 2.96434 1.80969 
0.022125 0.00553125 1.99899 1.86403e+21 1.23958e-05 -0.498183 -0.351393 2.15092 
0.019125 0.00609375 1.98824 1.93527e+21 1.28695e-05 1.72324 3.17325 0.502988 
0.019125 0.00628125 2.00454 2.06849e+21 1.37555e-05 -0.957092 -1.68173 -1.38513 
0.023625 0.00646875 2.04335 1.93855e+21 1.28914e-05 2.20383 1.41284 -1.35389 
0.023625 0.00665625 1.98602 2.03017e+21 1.35006e-05 1.52962 1.20596 -2.16006 
0.022875 0.00759375 2.03147 2.05674e+21 1.36774e-05 2.60123 0.221526 -1.61765 
0.018375 0.0180937 0 0 0 0 0 0 
0.018375 0.0182812 0 0 0 0 0 0 
0.016875 0.00271875 2.0719 2.00648e+21 1.33431e-05 -2.58814 -2.41597 -1.36294 
0.017625 0.00271875 1.96521 2.01481e+21 1.33985e-05 4.5342 1.89464 1.4655 
0.016875 0.00290625 2.01246 1.94713e+21 1.29484e-05 2.83228 -0.0860938 3.13178 
0.017625 0.00290625 1.99454 2.02891e+21 1.34922e-05 0.393519 0.932652 0.0984931 
0.0256875 0.0124219 1.98391 2.02631e+21 1.34749e-05 2.47277 -0.685474 -4.5262 
0.0260625 0.0124219 1.97884 1.79671e+21 1.19481e-05 -4.39182 -1.91122 1.95416 
0.0256875 0.0125156 2.00197 1.98219e+21 1.31816e-05 -2.65129 0.835257 1.77548 
0.0260625 0.0125156 1.95922 1.93879e+21 1.28929e-05 0.374917 -0.825131 -1.91915 
0.0271875 0.0126094 1.98105 2.01054e+21 1.33701e-05 1.09294 3.43212 1.57694 
0.0275625 0.0126094 2.01039 1.83821e+21 1.22241e-05 2.75211 -3.25619 2.1797 
0.0271875 0.0127031 1.9527 1.99926e+21 1.32951e-05 1.00702 -2.76724 -2.31272 
0.0275625 0.0127031 1.93756 2.07054e+21 1.37691e-05 -2.00046 0.43442 4.85317 
0.0264375 0.0156094 2.21793 2.05336e+21 1.36549e-05 0.661071 5.19267 2.37068 
0.0268125 0.0156094 1.95063 1.92285e+21 1.2787e-05 -0.0456502 4.94331 -4.06627 
0.0264375 0.0157031 1.94098 1.97768e+21 1.31516e-05 -0.939128 1.12369 -1.44428 
0.0268125 0.0157031 2.00987 1.99786e+21 1.32858e-05 -2.9707 2.53392 0.0700566 
0.0294375 0.0150469 2.05306 1.87138e+21 1.24447e-05 -3.76192 2.8908 -4.67498 
0.0298125 0.0150469 1.90954 2.01279e+21 1.3385e-05 2.39156 -1.01737 -2.30793 
0.0294375 0.0151406 2.10302 2.14683e+21 1.42764e-05 0.530803 -2.91218 -1.40184 
0.0298125 0.0151406 2.01184 2.0063e+21 1.33419e-05 -1.91648 -0.907506 2.84431 
0.0241875 0.0157969 1.99531 1.87137e+21 1.24446e-05 0.655409 -2.73271 -1.96941 
0.0245625 0.0157969 1.96714 1.97454e+21 1.31307e-05 -5.94556 1.48113 3.72855 
0.0241875 0.0158906 2.03333 1.86888e+21 1.2428e-05 0.775417 -0.933609 1.84353 
0.0245625 0.0158906 1.9376 2.02841e+21 1.3489e-05 4.98668 2.86993 5.66 
0.0256875 0.0163594 1.97301 1.87344e+21 1.24584e-05 0.0835221 -0.783256 -1.25831 
0.0260625 0.0163594 1.94879 2.08929e+21 1.38937e-05 -1.95799 -1.76343 2.50379 
0.0256875 0.0164531 1.98998 2.0141e+21 1.33937e-05 2.69829 -4.39128 1.73085 
0.0260625 0.0164531 2.03654 1.79948e+21 1.19665e-05 1.89217 -2.91949 -0.290966 
0.0286875 0.0163594 2.01209 2.10589e+21 1.40042e-05 4.13117 -2.14769 0.0222546 
0.0290625 0.0163594 1.94323 1.89558e+21 1.26056e-05 0.585526 2.04842 2.11356 
0.0286875 0.0164531 1.84879 1.84626e+21 1.22776e-05 1.06781 0.125873 1.03362 
0.0290625 0.0164531 1.93541 2.06087e+21 1.37048e-05 5.0595 1.9205 -0.53453 
0.0256875 0.0172969 2.08075 1.91323e+21 1.2723e-05 -2.00186 -1.29305 0.0685828 
0.0260625 0.0172969 1.90913 1.88706e+21 1.25489e-05 -5.72528 2.81497 4.47229 
0.0256875 0.0173906 1.92498 2.06431e+21 1.37277e-05 -0.263607 -2.22977 0.168745 
0.0260625 0.0173906 1.97321 1.968e+21 1.30872e-05 -1.85377 -0.449369 1.49297 
0.0256875 0.0178594 2.05023 1.9645e+21 1.3064e-05 -0.0278472 -0.62197 1.62089 
0.0260625 0.0178594 1.96706 2.03041e+21 1.35022e-05 3.62346 -0.0720959 3.08276 
0.0256875 0.0179531 1.90443 2.0072e+21 1.33479e-05 -0.7312 -0.774771 0.377994 
0.0260625 0.0179531 1.98261 1.83573e+21 1.22076e-05 -3.01472 -0.176946 -1.27312 
0.0271875 0.0178594 1.89978 1.85044e+21 1.23054e-05 1.42759 -0.659754 4.36316 
0.0275625 0.0178594 2.07395 1.9569e+21 1.30134e-05 1.52858 -1.06102 -4.36221 
0.0271875 0.0179531 1.99183 1.8559e+21 1.23418e-05 0.542129 1.78153 2.29158 
0.0275625 0.0179531 1.95656 1.95929e+21 1.30293e-05 0.38186 -2.65227 0.189709 
0.0256875 0.0180469 1.95503 1.95162e+21 1.29783e-05 -1.49914 3.0178 -3.26972 
0.0260625 0.0180469 1.89928 1.83623e+21 1.22109e-05 3.14399 -3.02842 0.787327 
0.0256875 0.0181406 2.0177 2.09626e+21 1.39401e-05 0.252701 2.37694 2.13458 
0.0260625 0.0181406 2.10011 1.87415e+21 1.24631e-05 -2.35788 2.49295 3.25392 
0.0249375 0.0186094 1.9602 1.92912e+21 1.28286e-05 -0.310294 2.5216 1.5161 
0.0253125 0.0186094 1.94747 2.02643e+21 1.34757e-05 0.499118 3.76257 -1.54018 
0.0249375 0.0187031 1.92119 1.88314e+21 1.25229e-05 0.546188 2.9098 -4.52177 
0.0253125 0.0187031 1.99625 1.99933e+21 1.32955e-05 -1.78604 -0.63928 -0.544951 
0.0268125 0.0186094 1.93287 2.09211e+21 1.39125e-05 0.963355 1.29332 2.37568 
0.0264375 0.0187031 1.98495 2.02595e+21 1.34726e-05 -0.312098 -0.248375 3.37107 
0.0268125 0.0187031 1.95013 1.86136e+21 1.2378e-05 4.04501 -2.13324 -2.2926 
0.0241875 0.0187969 2.06296 2.06161e+21 1.37097e-05 0.94584 0.759954 3.30548 
0.0245625 0.0187969 2.07741 1.96286e+21 1.3053e-05 1.84076 -0.815246 0.50867 
0.0241875 0.0188906 1.95336 1.90998e+21 1.27014e-05 0.897617 3.84913 1.86812 
0.0245625 0.0188906 2.06899 1.9675e+21 1.30839e-05 1.16405 -1.20373 1.52178 
0.0249375 0.0187969 1.97095 1.94841e+21 1.29569e-05 -2.61388 3.34574 0.110546 
0.0253125 0.0187969 2.00464 2.0038e+21 1.33253e-05 1.82009 0.960139 -2.38053 
0.0249375 0.0188906 2.03973 2.02262e+21 1.34504e-05 1.78525 -0.558793 -2.3532 
0.0253125 0.0188906 1.95469 2.05377e+21 1.36576e-05 3.34514 -0.560956 -3.00912 
0.0264375 0.0189844 1.92448 1.97686e+21 1.31461e-05 2.65096 -2.16393 1.12633 
0.0268125 0.0189844 2.12346 1.9554e+21 1.30034e-05 3.59024 3.6869 -1.90525 
0.0264375 0.0190781 2.01886 1.91257e+21 1.27186e-05 -0.958715 1.38566 1.86133 
0.0268125 0.0190781 2.042 1.86986e+21 1.24345e-05 0.374884 3.90306 -2.14224 
0.0271875 0.0187969 2.04697 1.88097e+21 1.25085e-05 1.2885 3.57194 -1.84245 
0.0275625 0.0187969 1.99809 1.8882e+21 1.25565e-05 -0.0713065 -1.69213 -1.47352 
0.0271875 0.0188906 1.99682 2.09211e+21 1.39126e-05 2.58373 0.0864593 -0.809898 
0.0275625 0.0188906 1.96144 1.83569e+21 1.22074e-05 -0.40252 -0.371079 1.81437 
0.0298125 0.0189844 2.01275 1.90294e+21 1.26545e-05 -3.20078 -3.40359 -0.590187 
0.0294375 0.0190781 2.10586 2.00274e+21 1.33182e-05 -3.81835 3.69296 2.89734 
0.0298125 0.0190781 1.98757 1.84375e+21 1.2261e-05 0.259211 -0.233643 -4.9143 
0.0271875 0.0191719 2.01271 1.92683e+21 1.28134e-05 0.0474618 3.59452 1.04088 
0.0275625 0.0191719 1.93417 1.99767e+21 1.32845e-05 -3.36127 2.28189 -0.066376 
0.0271875 0.0192656 2.08004 1.9809e+21 1.3173e-05 0.524257 1.83669 -2.49039 
0.0286875 0.0193594 1.97688 1.95961e+21 1.30314e-05 -0.451242 2.81431 3.74675 
0.0290625 0.0193594 2.0417 2.00638e+21 1.33424e-05 -1.21984 2.77632 -1.13694 
0.0286875 0.0194531 2.07049 1.95715e+21 1.30151e-05 2.02448 -1.53256 -0.89445 
0.0290625 0.0194531 2.07954 1.94319e+21 1.29222e-05 0.132755 2.67562 0.298952 
0.0256875 0.0195469 2.05385 1.94545e+21 1.29372e-05 -1.30325 2.9692 0.384491 
0.0260625 0.0195469 2.00759 1.95008e+21 1.2968e-05 -1.11437 1.9961 -1.40704 
0.0256875 0.0196406 1.93945 1.97535e+21 1.3136e-05 -0.0564516 1.68266 0.72799 
0.0260625 0.0196406 1.99458 1.97074e+21 1.31054e-05 2.3473 1.45391 -0.0359966 
0.0271875 0.0197344 2.06209 1.90173e+21 1.26465e-05 -0.538475 -1.07713 2.48683 
0.0275625 0.0197344 1.95194 1.9889e+21 1.32262e-05 -1.14994 1.8274 0.105123 
0.0271875 0.0198281 1.9879 2.00233e+21 1.33155e-05 1.84438 -0.0153249 -5.07673 
0.0279375 0.0199219 1.93644 2.07244e+21 1.37817e-05 -2.2788 0.881572 -0.291917 
0.0283125 0.0199219 2.01851 1.94291e+21 1.29204e-05 -1.48838 3.44527 -3.69881 