ITEM: TIMESTEP
510001
ITEM: NUMBER OF SURFS
10
ITEM: BOX BOUNDS oo ao pp
0 0.12
0 0.03
-0.1 0.1
ITEM: SURFS id v1x v1y v2x v2y 
1 0.005 0.002 0.005 0 
9 0 0 0 0.009 
2 0.025 0.002 0.005 0.002 
10 0.005 0 0 0 
3 0.025 0.00635 0.025 0.002 
4 0.0631 0.00635 0.025 0.00635 
5 0.0631 0.0025 0.0631 0.00635 
6 0.0681 0.0025 0.0631 0.0025 
7 0.0681 0.009 0.0681 0.0025 
8 0 0.009 0.0681 0.009 
