ITEM: TIMESTEP
500000
ITEM: NUMBER OF CELLS
16582
ITEM: BOX BOUNDS oo ao pp
0 0.12
0 0.03
-0.1 0.1
ITEM: CELLS xc yc f_out[1] f_out[2] f_out[3] f_out[4] f_out[5] f_out[6] 
0.003 0.00375 0 0 0 0 0 0 
0.003 0.00675 0 0 0 0 0 0 
0.003 0.00975 0 0 0 0 0 0 
0.003 0.01275 0 0 0 0 0 0 
0.003 0.01575 0 0 0 0 0 0 
0.003 0.01875 0 0 0 0 0 0 
0.003 0.02175 0 0 0 0 0 0 
0.003 0.02475 0 0 0 0 0 0 
0.003 0.02775 0 0 0 0 0 0 
0.009 0.00375 0 0 0 0 0 0 
0.009 0.00675 0 0 0 0 0 0 
0.009 0.00975 0 0 0 0 0 0 
0.009 0.01275 0 0 0 0 0 0 
0.009 0.01575 0 0 0 0 0 0 
0.009 0.01875 0 0 0 0 0 0 
0.009 0.02175 0 0 0 0 0 0 
0.009 0.02475 0 0 0 0 0 0 
0.009 0.02775 0 0 0 0 0 0 
0.003 0.00525 0 0 0 0 0 0 
0.003 0.00825 0 0 0 0 0 0 
0.003 0.01125 0 0 0 0 0 0 
0.003 0.01425 0 0 0 0 0 0 
0.003 0.01725 0 0 0 0 0 0 
0.003 0.02025 0 0 0 0 0 0 
0.003 0.02325 0 0 0 0 0 0 
0.003 0.02625 0 0 0 0 0 0 
0.003 0.02925 0 0 0 0 0 0 
0.009 0.00525 0 0 0 0 0 0 
0.009 0.00825 0 0 0 0 0 0 
0.009 0.01125 0 0 0 0 0 0 
0.009 0.01425 0 0 0 0 0 0 
0.009 0.01725 0 0 0 0 0 0 
0.009 0.02025 0 0 0 0 0 0 
0.009 0.02325 0 0 0 0 0 0 
0.009 0.02625 0 0 0 0 0 0 
0.009 0.02925 0 0 0 0 0 0 
0.015 0.00525 0 0 0 0 0 0 
0.015 0.00825 0 0 0 0 0 0 
0.015 0.01125 0 0 0 0 0 0 
0.015 0.01425 0 0 0 0 0 0 
0.015 0.01725 0 0 0 0 0 0 
0.015 0.02025 0 0 0 0 0 0 
0.015 0.02325 0 0 0 0 0 0 
0.015 0.02625 0 0 0 0 0 0 
0.015 0.02925 0 0 0 0 0 0 
0.0015 0.000375 0 0 0 0 0 0 
0.0015 0.001125 0 0 0 0 0 0 
0.0015 0.001875 0 0 0 0 0 0 
0.0015 0.002625 0 0 0 0 0 0 
0.0045 0.002625 0 0 0 0 0 0 
0.0075 0.002625 0 0 0 0 0 0 
0.0105 0.002625 0 0 0 0 0 0 
0.0135 0.002625 0 0 0 0 0 0 
0.0165 0.002625 0 0 0 0 0 0 
0.00375 0.0001875 0 0 0 0 0 0 
0.00375 0.0005625 0 0 0 0 0 0 
0.00375 0.0009375 0 0 0 0 0 0 
0.00375 0.0013125 0 0 0 0 0 0 
0.00375 0.0016875 0 0 0 0 0 0 
0.00375 0.0020625 0 0 0 0 0 0 
0.004875 0.00046875 3.78597 8.91464e+21 5.92824e-05 15.8354 20.4559 -1.01898 
0.004875 0.00065625 4.0595 9.11199e+21 6.05947e-05 4.92991 10.4772 3.95601 
0.004875 0.00084375 4.20765 8.35823e+21 5.55822e-05 4.81232 -2.18596 -3.90888 
0.004875 0.00103125 4.01945 8.15328e+21 5.42193e-05 -3.48646 1.67902 0.847611 
0.006375 9.375e-05 4.00814 8.20233e+21 5.45455e-05 17.3797 -2.77113 -2.2967 
0.007125 9.375e-05 4.32261 8.09441e+21 5.38278e-05 14.2627 -0.793842 2.49057 
0.006375 0.00028125 3.89495 9.02976e+21 6.00479e-05 24.3434 1.81454 -0.597384 
0.007125 0.00028125 4.02556 8.21433e+21 5.46253e-05 17.9564 -1.7682 3.08607 
0.007875 9.375e-05 4.37623 8.77794e+21 5.83733e-05 3.3865 0.957331 3.28214 
0.008625 9.375e-05 4.10608 8.16636e+21 5.43063e-05 10.7837 0.653569 -10.1669 
0.007875 0.00028125 3.83257 8.78993e+21 5.8453e-05 12.3934 -2.7408 -0.069614 
0.008625 0.00028125 4.11731 8.28628e+21 5.51037e-05 12.7394 2.41876 -2.53265 
0.010875 9.375e-05 4.13074 7.91453e+21 5.26316e-05 18.077 -5.89856 -2.08779 
0.011625 9.375e-05 4.06481 7.59076e+21 5.04785e-05 11.1515 7.86744 -8.86182 
0.010875 0.00028125 3.8941 7.68669e+21 5.11165e-05 15.7129 -2.91796 -2.75143 
0.011625 0.00028125 3.93586 7.95051e+21 5.28709e-05 16.7611 4.17276 1.93881 
0.010125 0.00046875 3.96191 7.62673e+21 5.07178e-05 11.217 -5.04126 -2.49809 
0.004875 0.00215625 0 0 0 0 0 0 
0.005625 0.00215625 0 0 0 0 0 0 
0.006375 0.00215625 0 0 0 0 0 0 
0.007125 0.00215625 0 0 0 0 0 0 
0.007875 0.00215625 0 0 0 0 0 0 
0.008625 0.00215625 0 0 0 0 0 0 
0.009375 0.00215625 0 0 0 0 0 0 
0.010125 0.00215625 0 0 0 0 0 0 
0.010875 0.00215625 0 0 0 0 0 0 
0.011625 0.00215625 0 0 0 0 0 0 
0.012375 0.00215625 0 0 0 0 0 0 
0.013125 0.00215625 0 0 0 0 0 0 
0.013875 0.00215625 0 0 0 0 0 0 
0.014625 0.00215625 0 0 0 0 0 0 
0.015375 0.00215625 0 0 0 0 0 0 
0.016125 0.00215625 0 0 0 0 0 0 
0.016875 0.00215625 0 0 0 0 0 0 
0.017625 0.00215625 0 0 0 0 0 0 
0.0054375 0.000609375 4.06365 9.05467e+21 6.02135e-05 22.9599 5.9011 3.74646 
0.0058125 0.000609375 4.0621 9.01039e+21 5.99191e-05 18.5995 4.2606 8.01319 
0.0054375 0.000703125 3.86804 8.99858e+21 5.98406e-05 12.9592 10.9613 1.0708 
0.0058125 0.000703125 3.9149 8.99858e+21 5.98406e-05 7.10769 8.38714 -0.57482 
0.0054375 0.000796875 4.14596 8.80333e+21 5.85421e-05 7.77735 4.85873 -3.46143 
0.0058125 0.000796875 3.92386 8.80333e+21 5.85421e-05 19.0508 6.6556 -5.24653 
0.0054375 0.000890625 4.17118 8.46741e+21 5.63083e-05 4.81133 7.58055 0.914692 
0.0058125 0.000890625 3.79579 8.31594e+21 5.5301e-05 12.4824 -3.00889 -5.32004 
0.0054375 0.000984375 4.0041 8.41476e+21 5.59581e-05 5.18972 -3.80221 -0.0768314 
0.0058125 0.000984375 3.87669 8.67515e+21 5.76897e-05 8.71138 1.72531 0.92614 
0.0054375 0.00107813 3.87078 8.5965e+21 5.71667e-05 1.30839 5.87204 -4.9162 
0.0058125 0.00107813 4.04117 9.03445e+21 6.00791e-05 9.65165 1.89378 5.18527 
0.0054375 0.00117188 3.74658 8.64555e+21 5.74929e-05 2.21729 -4.1426 -5.26577 
0.0058125 0.00117188 3.98109 8.5995e+21 5.71867e-05 7.39306 -3.48896 1.65224 
0.0054375 0.00126563 3.83008 8.76195e+21 5.82669e-05 5.0735 -3.91291 0.144855 
0.0058125 0.00126563 4.08459 8.18634e+21 5.44392e-05 4.05604 -3.04001 -1.67104 
0.0046875 0.00135937 0 0 0 0 0 0 
0.0050625 0.00135937 4.16048 8.42563e+21 5.60304e-05 3.13897 -7.33032 -5.79149 
0.0046875 0.00145312 0 0 0 0 0 0 
0.0050625 0.00145312 3.91965 8.35552e+21 5.55642e-05 3.41745 -8.79718 4.90392 
0.0054375 0.00135937 3.83069 8.63404e+21 5.74163e-05 0.619949 -0.76078 -6.20535 
0.0058125 0.00135937 3.88373 8.23707e+21 5.47765e-05 11.4263 7.34241 -4.63363 
0.0058125 0.00145312 4.12122 8.73616e+21 5.80955e-05 6.69652 -1.77897 3.48101 
0.0061875 0.000609375 4.16013 8.81114e+21 5.85941e-05 15.5612 -0.96599 -7.38293 
0.0065625 0.000609375 3.83696 8.94398e+21 5.94774e-05 19.0744 3.87507 2.26917 
0.0061875 0.000703125 3.92816 9.57419e+21 6.36683e-05 14.4285 1.68168 3.0121 
0.0065625 0.000703125 4.22459 8.59566e+21 5.71612e-05 11.8989 9.30933 -3.5413 
0.0069375 0.000609375 3.76765 8.45693e+21 5.62386e-05 21.113 5.442 4.57897 
0.0073125 0.000609375 4.11305 8.41265e+21 5.59441e-05 15.8594 11.207 -4.81682 
0.0069375 0.000703125 4.04912 8.36542e+21 5.563e-05 11.3181 2.74693 1.04542 
0.0073125 0.000703125 4.06374 8.2503e+21 5.48645e-05 9.67518 3.65639 3.60992 
0.0084375 0.000609375 4.04267 8.27982e+21 5.50608e-05 9.43895 1.98153 1.50679 
0.0088125 0.000609375 3.54841 8.01416e+21 5.32941e-05 15.7988 4.10129 7.55816 
0.0084375 0.000703125 3.87695 8.51891e+21 5.66508e-05 11.8434 0.312112 -2.24864 
0.0088125 0.000703125 4.0594 8.67241e+21 5.76715e-05 11.0581 2.08291 -3.51661 
0.0091875 0.000609375 3.80506 7.30572e+21 4.85831e-05 20.1461 8.19617 -0.287945 
0.0095625 0.000609375 3.98895 8.76687e+21 5.82997e-05 10.9794 -0.119927 -0.927574 
0.0091875 0.000703125 3.78508 8.23111e+21 5.47369e-05 8.50853 2.43904 0.329773 
0.0095625 0.000703125 3.85334 8.48054e+21 5.63956e-05 10.0592 -4.60784 -2.15469 
0.0106875 0.000609375 4.09021 7.88132e+21 5.24108e-05 12.2479 -6.59403 -1.47623 
0.0110625 0.000609375 3.97667 7.46069e+21 4.96136e-05 14.4751 -6.62862 1.89873 
0.0106875 0.000703125 3.79303 7.55958e+21 5.02712e-05 15.3894 -2.52899 4.47683 
0.0110625 0.000703125 4.0517 7.42527e+21 4.9378e-05 6.60075 -5.03653 4.53902 
0.0061875 0.000796875 3.97208 8.7864e+21 5.84296e-05 18.3506 0.788694 0.798322 
0.0065625 0.000796875 3.85971 8.53246e+21 5.67408e-05 16.9978 10.9558 4.98373 
0.0061875 0.000890625 4.05713 9.60347e+21 6.38631e-05 10.0679 12.7555 10.7049 
0.0065625 0.000890625 3.80797 8.8461e+21 5.88266e-05 11.2215 6.11745 1.36276 
0.0069375 0.000796875 3.82435 8.85412e+21 5.88799e-05 9.90327 0.291195 0.8484 
0.0073125 0.000796875 4.08063 8.53246e+21 5.67408e-05 7.32139 0.182176 1.88591 
0.0069375 0.000890625 4.08559 8.64918e+21 5.75171e-05 17.3725 9.07149 6.49132 
0.0073125 0.000890625 4.06643 9.07331e+21 6.03375e-05 16.7496 -4.20555 -1.4695 
0.0061875 0.000984375 3.9023 8.56551e+21 5.69607e-05 8.6058 8.33506 0.557466 
0.0065625 0.000984375 3.8982 8.5381e+21 5.67784e-05 8.51743 5.67619 -1.99587 
0.0061875 0.00107813 3.84142 8.29618e+21 5.51696e-05 10.4583 2.04233 1.29328 
0.0065625 0.00107813 4.17907 8.121e+21 5.40046e-05 15.4508 7.34821 -0.257417 
0.0069375 0.000984375 4.09141 8.18178e+21 5.44088e-05 13.3696 6.85935 -2.25111 
0.0073125 0.000984375 3.96476 8.57922e+21 5.70518e-05 8.70055 1.87996 -1.50703 
0.0069375 0.00107813 4.21959 8.64655e+21 5.74995e-05 15.222 3.29412 4.29356 
0.0073125 0.00107813 4.09424 8.90932e+21 5.9247e-05 5.74662 5.18776 3.08231 
0.0084375 0.000796875 4.21288 8.39702e+21 5.58402e-05 14.2595 9.60537 1.30357 
0.0088125 0.000796875 4.21436 7.71984e+21 5.1337e-05 13.5429 -1.50907 0.351111 
0.0084375 0.000890625 4.2047 7.9827e+21 5.30849e-05 11.0241 7.60656 -9.00917 
0.0088125 0.000890625 3.81547 8.63404e+21 5.74163e-05 20.1116 -3.98133 0.834936 
0.0076875 0.000984375 3.89467 8.71626e+21 5.79632e-05 7.86189 -0.167362 -4.20276 
0.0080625 0.000984375 3.94686 8.66145e+21 5.75986e-05 16.6693 1.53222 -0.590457 
0.0076875 0.00107813 4.08012 8.53393e+21 5.67506e-05 11.8376 0.857677 -2.07398 
0.0084375 0.000984375 3.83219 8.89443e+21 5.91479e-05 12.6656 4.00591 -3.42967 
0.0088125 0.000984375 4.1189 7.61988e+21 5.06722e-05 6.82184 -3.91349 -6.3411 
0.0084375 0.00107813 3.86575 8.14602e+21 5.41711e-05 9.312 1.89416 2.03448 
0.0088125 0.00107813 3.94072 8.43383e+21 5.60849e-05 10.2569 5.65751 0.67317 
0.0061875 0.00117188 3.98428 8.80672e+21 5.85647e-05 13.2802 -0.506398 3.21444 
0.0065625 0.00117188 4.03175 8.12751e+21 5.40479e-05 7.36182 -1.3291 3.50396 
0.0065625 0.00126563 3.89307 8.46349e+21 5.62822e-05 14.0221 3.81419 -0.934033 
0.0069375 0.00117188 3.80934 8.63404e+21 5.74163e-05 13.8565 0.366819 0.897899 
0.0073125 0.00117188 3.98862 8.62252e+21 5.73398e-05 8.33385 -1.13023 -0.944543 
0.0069375 0.00126563 3.93172 8.81524e+21 5.86214e-05 8.74226 2.94681 -5.18715 
0.0061875 0.00135937 4.0764 8.83252e+21 5.87363e-05 3.52298 1.82693 0.736728 
0.0065625 0.00135937 3.9459 8.81267e+21 5.86043e-05 9.20518 2.77431 1.30377 
0.0061875 0.00145312 3.92605 8.5969e+21 5.71694e-05 7.38614 6.77781 -2.57966 
0.0065625 0.00145312 3.99263 8.12342e+21 5.40207e-05 9.31977 -5.79815 4.39826 
0.0069375 0.00135937 4.06369 9.08062e+21 6.03861e-05 0.415249 -1.21894 3.12211 
0.0069375 0.00145312 4.08944 8.81043e+21 5.85894e-05 8.66519 1.6284 -7.02327 
0.0076875 0.00117188 3.82308 8.28867e+21 5.51197e-05 3.59824 0.293587 2.4206 
0.0080625 0.00117188 3.98145 8.18507e+21 5.44307e-05 11.0523 6.86786 -0.27289 
0.0076875 0.00126563 3.99523 8.38887e+21 5.5786e-05 11.4857 3.72757 -1.04664 
0.0080625 0.00126563 4.00649 8.80458e+21 5.85505e-05 8.22877 2.89271 3.26067 
0.0084375 0.00117188 3.98433 7.49434e+21 4.98374e-05 15.3047 -4.48331 -5.16428 
0.0088125 0.00117188 4.15941 8.5995e+21 5.71867e-05 7.64002 -4.10179 1.22655 
0.0088125 0.00126563 4.06591 8.12239e+21 5.40139e-05 13.5918 -1.64167 -2.3198 
0.0076875 0.00135937 3.94305 8.40578e+21 5.58984e-05 15.7325 -3.52817 0.512163 
0.0080625 0.00135937 3.84157 8.71343e+21 5.79443e-05 8.19191 1.92676 -3.3393 
0.0076875 0.00145312 3.84218 8.32767e+21 5.5379e-05 12.6613 0.955603 4.59399 
0.0080625 0.00145312 4.01296 8.63404e+21 5.74163e-05 3.0699 1.8794 1.29865 
0.0084375 0.00135937 4.001 8.34623e+21 5.55025e-05 5.04183 4.92079 -0.28332 
0.0088125 0.00135937 4.11194 7.92942e+21 5.27306e-05 9.39529 3.10499 3.48933 
0.0084375 0.00145312 4.13375 8.34623e+21 5.55025e-05 7.57583 -2.54551 -3.23109 
0.0088125 0.00145312 4.04376 8.2534e+21 5.48851e-05 16.3105 -4.10317 0.145274 
0.0091875 0.000984375 4.05769 7.77063e+21 5.16747e-05 11.0031 0.796476 -8.00374 
0.0095625 0.000984375 4.30517 8.42846e+21 5.60493e-05 20.3358 -8.55744 -3.44992 
0.0091875 0.00107813 3.96059 7.9333e+21 5.27565e-05 10.681 0.555113 1.12342 
0.0095625 0.00107813 4.0501 8.30869e+21 5.52528e-05 10.2107 -0.356834 3.62337 
0.0099375 0.000984375 3.97337 7.89398e+21 5.24949e-05 11.3044 -4.56252 3.63871 
0.0103125 0.000984375 3.93391 7.56506e+21 5.03076e-05 9.90922 6.0544 -5.14797 
0.0099375 0.00107813 4.06399 8.04592e+21 5.35054e-05 18.7546 1.37403 -2.36237 
0.0103125 0.00107813 3.91801 7.98335e+21 5.30893e-05 11.836 -1.09815 -3.62041 
0.0114375 0.000796875 3.72925 7.4659e+21 4.96482e-05 20.7454 1.05835 4.86194 
0.0118125 0.000796875 3.73795 7.02573e+21 4.67211e-05 15.4069 -1.91928 -1.23408 
0.0114375 0.000890625 3.81613 7.40709e+21 4.92572e-05 11.0868 3.60427 -2.59052 
0.0118125 0.000890625 4.09949 7.28591e+21 4.84513e-05 7.71427 -1.58518 -2.9609 
0.0106875 0.000984375 3.94266 7.79804e+21 5.1857e-05 16.8532 -2.47408 -9.28147 
0.0110625 0.000984375 3.82379 7.74322e+21 5.14924e-05 19.3223 3.92533 -3.79177 
0.0106875 0.00107813 4.17637 7.30765e+21 4.85959e-05 9.00909 1.38606 -2.17437 
0.0110625 0.00107813 3.94896 7.57042e+21 5.03433e-05 4.7683 -2.48463 0.459205 
0.0114375 0.000984375 4.07737 7.33208e+21 4.87583e-05 18.0078 5.63338 8.44635 
0.0118125 0.000984375 3.98696 7.55135e+21 5.02165e-05 9.54411 0.277054 2.66953 
0.0114375 0.00107813 4.06602 7.55791e+21 5.02601e-05 8.35099 0.29739 0.0583428 
0.0118125 0.00107813 3.80198 7.27011e+21 4.83462e-05 13.344 2.05621 9.07099 
0.0091875 0.00117188 3.95877 8.13902e+21 5.41245e-05 16.8563 -0.183569 1.41825 
0.0095625 0.00117188 4.02744 8.33472e+21 5.54259e-05 6.77224 -0.842593 2.55063 
0.0091875 0.00126563 4.05977 8.28228e+21 5.50772e-05 12.3304 3.24606 -1.49193 
0.0095625 0.00126563 4.20294 8.34623e+21 5.55025e-05 8.06967 1.67052 2.08761 
0.0099375 0.00117188 3.69031 8.25414e+21 5.489e-05 15.1292 4.9198 -0.626817 
0.0103125 0.00117188 3.73694 7.80517e+21 5.19044e-05 8.87395 3.20763 -0.674799 
0.0099375 0.00126563 3.977 7.55745e+21 5.0257e-05 14.4929 -3.21131 1.68399 
0.0103125 0.00126563 4.02502 7.66404e+21 5.09659e-05 10.5584 1.51188 6.56738 
0.0091875 0.00135937 4.13881 7.69124e+21 5.11467e-05 8.38248 0.39604 -3.15041 
0.0095625 0.00135937 4.03018 7.83018e+21 5.20707e-05 7.25216 2.31267 -3.14077 
0.0095625 0.00145312 4.07619 7.74278e+21 5.14895e-05 11.5862 -2.62206 -1.58973 
0.0099375 0.00135937 4.0133 7.92942e+21 5.27306e-05 12.0985 -1.10965 -2.59097 
0.0103125 0.00135937 3.82016 7.88972e+21 5.24667e-05 13.4372 -3.96749 -3.50888 
0.0103125 0.00145312 4.21299 7.53853e+21 5.01313e-05 7.51422 3.54861 1.46338 
0.0106875 0.00117188 4.06743 7.69005e+21 5.11388e-05 11.1319 -0.0472216 -7.13361 
0.0110625 0.00117188 4.01177 7.69005e+21 5.11388e-05 10.5097 3.24897 4.99288 
0.0106875 0.00126563 4.07569 7.34426e+21 4.88393e-05 9.26527 2.93507 -1.89373 
0.0110625 0.00126563 3.97209 7.88788e+21 5.24544e-05 10.0524 0.355205 -2.77888 
0.0114375 0.00117188 3.80823 7.0684e+21 4.70048e-05 11.5723 1.90751 0.206388 
0.0118125 0.00117188 3.79562 7.07991e+21 4.70814e-05 7.22639 11.4513 -0.606705 
0.0114375 0.00126563 3.99734 7.64272e+21 5.08241e-05 7.77219 2.14556 2.0742 
0.0118125 0.00126563 4.12273 7.52547e+21 5.00444e-05 13.1114 11.6065 0.980509 
0.0106875 0.00145312 3.93529 7.43641e+21 4.94521e-05 4.70393 -4.64808 -1.35708 
0.0110625 0.00145312 4.02283 7.66851e+21 5.09956e-05 12.4913 11.037 -5.40364 
0.0114375 0.00135937 3.99299 7.35382e+21 4.89029e-05 11.8659 3.815 -4.40184 
0.0118125 0.00135937 3.9294 7.73094e+21 5.14107e-05 9.21478 -0.237491 1.58495 
0.0054375 0.00164063 3.9697 8.3709e+21 5.56665e-05 7.6645 0.642032 2.32423 
0.0054375 0.00201563 3.67391 7.97459e+21 5.3031e-05 15.8918 2.75784 0.852641 
0.0058125 0.00201563 4.2476 8.8108e+21 5.85918e-05 4.32585 2.97599 3.90401 
0.0069375 0.00154688 3.99308 8.2503e+21 5.48645e-05 8.24375 -2.584 0.27463 
0.0073125 0.00154688 4.04549 8.1282e+21 5.40526e-05 5.34852 4.46023 -6.74806 
0.0080625 0.00154688 3.95557 8.09332e+21 5.38206e-05 16.1622 -7.77362 -0.00752386 
0.0084375 0.00164063 4.05364 7.95154e+21 5.28777e-05 2.59187 0.715179 3.5035 
0.0088125 0.00164063 3.91163 8.01732e+21 5.33152e-05 10.9857 3.15809 0.588362 
0.0076875 0.00182813 3.93417 8.18388e+21 5.44228e-05 1.57178 3.01321 3.0841 
0.0061875 0.00201563 3.50769 8.60684e+21 5.72355e-05 8.7972 0.433506 6.68583 
0.0065625 0.00201563 3.74888 8.64763e+21 5.75068e-05 2.91382 -6.29421 -9.29631 
0.0069375 0.00201563 3.99596 8.72921e+21 5.80493e-05 12.9082 -3.91432 2.06763 
0.0073125 0.00201563 4.02579 8.93317e+21 5.94056e-05 4.02282 2.70515 3.55025 
0.0076875 0.00201563 4.08727 8.64763e+21 5.75068e-05 3.37203 -1.11868 -7.8935 
0.0080625 0.00201563 4.03345 8.70882e+21 5.79136e-05 0.830087 1.66029 -6.95508 
0.0084375 0.00201563 3.67306 8.26012e+21 5.49298e-05 -1.94776 -2.59803 3.9345 
0.0088125 0.00201563 4.0469 7.72984e+21 5.14034e-05 -1.57216 0.836747 0.478595 
0.0095625 0.00164063 4.07115 7.46638e+21 4.96515e-05 10.5644 4.52575 -0.527128 
0.0099375 0.00154688 4.00964 7.50027e+21 4.98768e-05 7.88323 -2.12053 -2.88128 
0.0103125 0.00154688 3.95908 7.50027e+21 4.98768e-05 6.21965 -2.46415 3.65989 
0.0099375 0.00173438 3.95845 7.95731e+21 5.29161e-05 4.4539 0.947897 -3.15835 
0.0103125 0.00173438 4.30654 7.38171e+21 4.90884e-05 5.64599 6.99426 0.592221 
0.0106875 0.00154688 3.84523 7.92761e+21 5.27186e-05 2.23731 0.996993 1.77782 
0.0110625 0.00154688 4.22271 7.46539e+21 4.96448e-05 2.28702 3.7342 1.12039 
0.0106875 0.00164063 3.9141 7.7953e+21 5.18387e-05 7.86971 2.11384 2.18944 
0.0110625 0.00164063 3.74848 7.47461e+21 4.97061e-05 8.57093 -5.10265 -2.99496 
0.0114375 0.00154688 3.95326 7.62237e+21 5.06888e-05 13.1262 0.188537 0.586928 
0.0118125 0.00154688 4.07283 7.6747e+21 5.10367e-05 6.74464 4.85424 2.4441 
0.0118125 0.00164063 3.99276 7.26904e+21 4.83391e-05 8.19347 4.63537 0.0125176 
0.0110625 0.00173438 4.015 7.57617e+21 5.03815e-05 8.76087 -1.93239 4.91142 
0.0118125 0.00173438 4.10665 7.36615e+21 4.89849e-05 -0.0813393 -2.7108 1.10382 
0.0091875 0.00201563 3.76565 8.87198e+21 5.89987e-05 5.54972 -6.27907 0.895072 
0.0095625 0.00201563 4.02614 7.95419e+21 5.28954e-05 -7.47828 1.75046 0.540053 
0.0099375 0.00201563 4.01132 7.77063e+21 5.16747e-05 3.57735 -1.91164 3.25937 
0.0103125 0.00201563 3.90399 7.85221e+21 5.22172e-05 -1.00086 2.89022 -0.207328 
0.0106875 0.00201563 3.86196 7.85221e+21 5.22172e-05 3.01774 0.63262 -6.73691 
0.0110625 0.00201563 4.11054 7.99498e+21 5.31666e-05 6.1402 1.28599 2.68217 
0.0114375 0.00201563 3.92622 7.50549e+21 4.99115e-05 7.4254 0.575521 -1.05637 
0.0118125 0.00201563 3.7475 7.07719e+21 4.70633e-05 -3.17983 -2.84576 -0.453406 
0.0121875 0.00154688 3.84939 7.13398e+21 4.7441e-05 8.60173 0.400599 -0.708259 
0.0125625 0.00154688 4.06871 7.59621e+21 5.05148e-05 9.70771 -0.249251 1.9617 
0.0121875 0.00164063 4.03525 7.12925e+21 4.74095e-05 2.63127 -4.11502 0.287475 
0.0133125 0.00154688 4.11949 6.977e+21 4.6397e-05 4.50909 -3.25484 2.2108 
0.0129375 0.00164063 4.10744 6.97301e+21 4.63705e-05 7.58154 5.83631 -2.69421 
0.0125625 0.00173438 3.79626 6.99279e+21 4.65021e-05 9.71862 -0.674142 -2.33801 
0.0121875 0.00182813 3.96057 7.39428e+21 4.91719e-05 1.68784 -1.06377 3.23333 
0.0125625 0.00182813 3.99992 7.65256e+21 5.08895e-05 9.5597 2.50508 -0.21914 
0.0129375 0.00173438 4.12967 7.31171e+21 4.86228e-05 6.28473 1.68924 2.01326 
0.0133125 0.00173438 4.03129 7.19503e+21 4.78469e-05 5.06665 -1.40073 0.861821 
0.0136875 0.00154688 4.20804 6.82002e+21 4.53531e-05 10.0465 -1.31205 -2.62309 
0.0140625 0.00154688 3.8795 7.28224e+21 4.84269e-05 12.6232 3.46989 -2.95595 
0.0136875 0.00164063 4.03816 7.0059e+21 4.65893e-05 4.7944 -3.34344 0.00271999 
0.0140625 0.00164063 3.94764 6.87434e+21 4.57143e-05 9.44563 4.06328 1.21485 
0.0144375 0.00154688 3.91621 6.60198e+21 4.39032e-05 9.52141 -2.04279 2.32702 
0.0148125 0.00154688 3.98985 7.25608e+21 4.82529e-05 10.8062 1.02437 -0.657903 
0.0144375 0.00164063 4.12683 6.95657e+21 4.62612e-05 9.738 2.53622 -2.35627 
0.0148125 0.00164063 4.18085 6.69343e+21 4.45113e-05 12.1297 0.188158 -0.348531 
0.0136875 0.00173438 4.1044 6.96946e+21 4.63469e-05 5.08114 -2.96244 -1.85651 
0.0140625 0.00173438 3.79783 6.42497e+21 4.2726e-05 5.45377 2.83005 2.96499 
0.0140625 0.00182813 3.99912 6.96626e+21 4.63257e-05 6.09793 -4.66815 -2.41083 
0.0144375 0.00173438 4.08576 6.97723e+21 4.63986e-05 0.935306 4.23247 3.53679 
0.0148125 0.00173438 3.9579 6.5572e+21 4.36054e-05 7.79393 2.53213 -1.5949 
0.0144375 0.00182813 3.86128 7.30572e+21 4.85831e-05 8.03991 0.775932 -3.67684 
0.0148125 0.00182813 4.05678 6.90723e+21 4.59331e-05 12.0555 -4.77627 -0.616119 
0.0125625 0.00192187 4.31088 7.76361e+21 5.1628e-05 5.12559 -1.03675 0.386987 
0.0121875 0.00201563 3.97883 8.11735e+21 5.39804e-05 7.67921 6.02056 -3.7775 
0.0125625 0.00201563 4.01119 7.0364e+21 4.67921e-05 1.59293 -1.97359 3.60296 
0.0129375 0.00192187 4.04666 7.24417e+21 4.81737e-05 7.22288 2.26226 -0.407625 
0.0129375 0.00201563 3.8249 6.97521e+21 4.63852e-05 -2.72952 -1.47669 -6.37561 
0.0133125 0.00201563 3.9038 6.64889e+21 4.42151e-05 -0.419934 7.69321 -2.92374 
0.0136875 0.00192187 3.8813 7.20205e+21 4.78936e-05 2.389 -1.52396 -0.949554 
0.0136875 0.00201563 3.76831 7.24035e+21 4.81483e-05 1.67217 -5.15723 -3.42499 
0.0140625 0.00201563 3.7537 6.50612e+21 4.32657e-05 0.238262 2.40556 12.8413 
0.0148125 0.00192187 3.87831 6.66856e+21 4.4346e-05 2.46841 2.10669 1.05698 
0.0144375 0.00201563 4.29258 6.56731e+21 4.36726e-05 10.9813 -3.4594 1.56695 
0.0148125 0.00201563 3.9321 6.87324e+21 4.5707e-05 5.99471 3.21022 5.04149 
0.0151875 0.00154688 3.89399 6.70664e+21 4.45992e-05 3.3693 -0.870892 4.26625 
0.0155625 0.00154688 4.02631 6.23569e+21 4.14674e-05 5.47648 3.06315 -4.22904 
0.0151875 0.00164063 4.01538 6.74277e+21 4.48394e-05 4.10653 -0.954284 1.54327 
0.0155625 0.00164063 3.86244 6.43852e+21 4.28162e-05 6.72652 -2.64209 -1.27599 
0.0163125 0.00154688 3.92786 6.35779e+21 4.22793e-05 10.6629 -0.301879 -0.68516 
0.0159375 0.00164063 4.02402 6.34807e+21 4.22147e-05 13.1203 -1.10432 0.110758 
0.0163125 0.00164063 3.90959 6.63587e+21 4.41286e-05 9.64627 4.35201 0.038578 
0.0151875 0.00173438 3.9436 6.68165e+21 4.4433e-05 5.96222 -5.6281 -0.821384 
0.0155625 0.00173438 3.95171 6.25384e+21 4.1588e-05 5.6459 -2.76353 -1.27969 
0.0151875 0.00182813 3.95026 6.67846e+21 4.44118e-05 5.57628 -3.65922 -1.42331 
0.0155625 0.00182813 4.02628 6.73012e+21 4.47553e-05 4.84703 4.09895 0.52976 
0.0163125 0.00173438 3.89347 6.02049e+21 4.00363e-05 11.0371 -2.10603 3.51594 
0.0159375 0.00182813 3.93532 6.36114e+21 4.23016e-05 11.5935 -1.5651 3.25485 
0.0163125 0.00182813 4.01093 6.00693e+21 3.99461e-05 3.63115 -1.74087 -4.50008 
0.0166875 0.00154688 4.09072 6.06999e+21 4.03654e-05 6.16418 -3.32048 -4.46146 
0.0166875 0.00164063 3.85097 6.18361e+21 4.1121e-05 14.5053 -1.8803 -1.46322 
0.0170625 0.00164063 4.03723 5.94515e+21 3.95352e-05 13.2803 1.11316 -3.69627 
0.0174375 0.00154688 4.03446 5.54671e+21 3.68856e-05 9.93896 2.72201 1.19036 
0.0178125 0.00154688 3.89234 6.11359e+21 4.06554e-05 7.05638 -0.811385 0.866759 
0.0174375 0.00164063 3.94635 5.91226e+21 3.93165e-05 9.99509 8.63683 -1.87838 
0.0178125 0.00164063 3.64489 6.20006e+21 4.12304e-05 7.23488 1.97767 -0.325316 
0.0166875 0.00173438 3.86347 6.33163e+21 4.21053e-05 7.37012 -3.46497 4.3351 
0.0166875 0.00182813 3.95426 6.30211e+21 4.1909e-05 3.72067 -2.75928 -6.15366 
0.0174375 0.00173438 3.95573 5.81825e+21 3.86914e-05 9.73289 -6.56659 1.03039 
0.0178125 0.00173438 4.02853 6.14494e+21 4.08639e-05 11.0918 -1.67539 4.28288 
0.0178125 0.00182813 3.84826 6.04382e+21 4.01914e-05 3.7977 -3.97362 1.11822 
0.0151875 0.00192187 4.1188 6.63347e+21 4.41126e-05 5.92301 2.14518 -1.2425 
0.0155625 0.00192187 3.96307 6.48606e+21 4.31323e-05 4.327 -2.87646 -0.547461 
0.0151875 0.00201563 3.92336 6.64889e+21 4.42151e-05 7.70034 -2.34457 4.33189 
0.0155625 0.00201563 4.37841 7.07719e+21 4.70633e-05 4.81111 2.0236 -0.287379 
0.0159375 0.00192187 3.90272 6.37374e+21 4.23854e-05 10.6769 0.345624 1.27185 
0.0163125 0.00192187 3.99866 6.22633e+21 4.14051e-05 4.60497 -2.56429 1.45698 
0.0159375 0.00201563 4.05916 6.81205e+21 4.53001e-05 9.47167 9.11404 -5.25571 
0.0163125 0.00201563 4.11136 6.42454e+21 4.27232e-05 7.90537 -0.651945 -1.82977 
0.0170625 0.00192187 3.94695 6.24739e+21 4.15452e-05 8.87295 -5.80471 2.71827 
0.0166875 0.00201563 4.06121 6.38375e+21 4.24519e-05 10.1524 1.20994 9.37865 
0.0170625 0.00201563 4.18453 6.44493e+21 4.28588e-05 4.9572 1.45475 0.741717 
0.0174375 0.00192187 4.19057 6.18422e+21 4.1125e-05 6.17563 6.05902 1.41294 
0.0178125 0.00192187 4.11394 6.37374e+21 4.23854e-05 4.50984 -0.258461 -6.28842 
0.0174375 0.00201563 4.11649 6.24098e+21 4.15025e-05 8.41427 2.14418 4.37139 
0.0178125 0.00201563 3.93782 6.44493e+21 4.28588e-05 3.09514 -6.28252 -4.01565 
0.0054375 0.000421875 3.92886 1.00411e+22 6.67731e-05 30.4293 15.214 2.57207 
0.0058125 0.000421875 3.63929 8.76195e+21 5.82669e-05 33.1325 2.23077 5.1262 
0.0054375 0.000515625 3.66192 8.92184e+21 5.93302e-05 26.9805 17.7297 -4.66014 
0.0058125 0.000515625 3.90717 8.86951e+21 5.89822e-05 17.3597 15.9191 2.25355 
0.0084375 0.000421875 4.0701 7.32294e+21 4.86976e-05 20.2876 8.05584 1.2904 
0.0088125 0.000421875 3.81687 8.37821e+21 5.57151e-05 10.9152 5.62103 -6.61688 
0.0084375 0.000515625 3.76647 8.24158e+21 5.48065e-05 16.0546 -1.30732 -13.4125 
0.0088125 0.000515625 3.8805 8.39856e+21 5.58504e-05 11.865 11.2685 2.74046 
0.0114375 0.000609375 4.15129 8.10271e+21 5.3883e-05 17.2364 -5.05151 -3.23242 
0.0118125 0.000609375 3.88874 7.37214e+21 4.90247e-05 20.9137 4.12334 4.47211 
0.0114375 0.000703125 3.74089 7.46364e+21 4.96332e-05 21.1196 4.15081 7.88323 
0.0118125 0.000703125 3.7554 6.71536e+21 4.46571e-05 8.22336 2.73964 -7.3475 
0.0076875 0.000796875 4.15887 7.97379e+21 5.30257e-05 14.5855 -1.79247 1.52956 
0.0080625 0.000796875 3.82405 8.43088e+21 5.60654e-05 15.4738 2.09141 4.72804 
0.0076875 0.000890625 4.09622 8.74007e+21 5.81214e-05 12.3354 0.584694 -0.930289 
0.0080625 0.000890625 3.98567 7.9827e+21 5.30849e-05 13.4821 -3.70819 2.59394 
0.0091875 0.000796875 3.96288 7.44897e+21 4.95357e-05 13.5391 -3.17221 8.37394 
0.0095625 0.000796875 4.08822 7.83835e+21 5.2125e-05 15.5466 -4.93205 -2.89056 
0.0091875 0.000890625 4.14749 8.49771e+21 5.65098e-05 12.7476 -2.7592 3.04174 
0.0095625 0.000890625 3.93309 7.81607e+21 5.19769e-05 8.56441 10.3071 2.62644 
0.0106875 0.000796875 4.02942 7.24582e+21 4.81847e-05 16.8035 0.447288 -0.209246 
0.0110625 0.000796875 4.1477 7.60134e+21 5.05489e-05 15.368 4.25902 -5.25175 
0.0106875 0.000890625 3.99114 7.61916e+21 5.06674e-05 18.2115 5.35276 -1.58722 
0.0110625 0.000890625 3.87562 7.33136e+21 4.87535e-05 15.038 -6.46927 10.3193 
0.0046875 0.00173438 0 0 0 0 0 0 
0.0050625 0.00173438 4.03157 9.53244e+21 6.33907e-05 8.44518 -3.96037 2.88444 
0.0046875 0.00182813 0 0 0 0 0 0 
0.0050625 0.00182813 4.0605 8.87756e+21 5.90358e-05 -3.73871 0.970331 -0.262514 
0.00534375 0.00189844 4.09694 8.41374e+21 5.59514e-05 -9.05297 3.63145 -2.34526 
0.00553125 0.00189844 3.99587 9.46546e+21 6.29453e-05 -7.53616 -0.433665 9.71945 
0.00534375 0.00194531 4.32461 8.51614e+21 5.66323e-05 6.22844 0.710246 7.63514 
0.00553125 0.00194531 3.8632 8.73806e+21 5.81081e-05 -6.75973 -4.06621 -8.12185 
0.00609375 0.00152344 4.03612 9.10337e+21 6.05374e-05 -1.79702 -2.58 -5.57282 
0.00628125 0.00152344 4.01996 8.3241e+21 5.53552e-05 16.0845 -0.893583 -6.64169 
0.00609375 0.00157031 3.67342 8.96909e+21 5.96444e-05 -0.472099 1.64512 -3.09053 
0.00628125 0.00157031 4.03787 8.69417e+21 5.78163e-05 4.75262 5.56945 1.30836 
0.00609375 0.00180469 4.05767 8.70131e+21 5.78637e-05 3.45204 4.9545 -1.74195 
0.00628125 0.00180469 4.06316 9.09003e+21 6.04487e-05 3.13709 -5.09397 -2.6332 
0.00609375 0.00185156 4.17453 8.77247e+21 5.83369e-05 2.79529 -1.94337 0.845691 
0.00628125 0.00185156 3.99175 7.89814e+21 5.25226e-05 -0.328165 -5.73919 -4.58784 
0.00721875 0.00189844 4.1173 9.03909e+21 6.01099e-05 -7.84243 -4.1926 -2.30973 
0.00740625 0.00189844 4.07582 8.04422e+21 5.34941e-05 6.10297 5.29297 0.790939 
0.00721875 0.00194531 3.81114 8.87676e+21 5.90304e-05 2.93498 2.44294 0.0917213 
0.00740625 0.00194531 3.77643 8.95998e+21 5.95839e-05 -6.89779 -2.45848 -1.77603 
0.00759375 0.00189844 4.18533 8.24319e+21 5.48172e-05 4.68825 4.32394 -0.936275 
0.00778125 0.00189844 3.92325 8.64114e+21 5.74636e-05 5.74307 0.939266 -9.85788 
0.00759375 0.00194531 3.65445 7.62847e+21 5.07293e-05 11.7643 -3.03301 0.0507586 
0.00778125 0.00194531 4.07526 8.65484e+21 5.75547e-05 -6.84342 -6.97765 0.653051 
0.0109687 0.00180469 4.09411 8.22289e+21 5.46822e-05 4.47993 3.4889 -9.52957 
0.0111562 0.00180469 4.20728 8.13319e+21 5.40857e-05 11.4005 13.7619 6.21782 
0.0109687 0.00185156 3.74988 8.39359e+21 5.58174e-05 -0.0936272 -7.62084 1.69835 
0.0111562 0.00185156 4.01353 7.63584e+21 5.07783e-05 8.00175 -0.6126 -1.81872 
0.0120938 0.00171094 3.99529 7.85342e+21 5.22253e-05 -0.24657 -1.95086 -11.449 
0.0122813 0.00171094 3.82839 7.12801e+21 4.74012e-05 7.45238 7.60298 -1.15572 
0.0120938 0.00175781 4.25651 7.21422e+21 4.79745e-05 -2.26367 9.61752 -10.1899 
0.0122813 0.00175781 4.29948 6.20116e+21 4.12377e-05 6.46917 -5.0407 -0.400316 
0.009375 9.375e-05 4.15663 8.27428e+21 5.5024e-05 22.6941 0.547593 2.70335 
0.010125 9.375e-05 3.96407 7.51881e+21 5.00001e-05 18.7212 5.68269 -6.84251 
0.009375 0.00028125 4.09934 8.2503e+21 5.48645e-05 10.4458 -3.83702 4.95099 
0.010125 0.00028125 4.01521 7.35092e+21 4.88836e-05 18.0507 5.0849 3.12883 
0.0046875 0.00117188 0 0 0 0 0 0 
0.0050625 0.00117188 3.86515 8.56496e+21 5.6957e-05 3.46285 0.0557826 3.73467 
0.0046875 0.00126563 0 0 0 0 0 0 
0.0050625 0.00126563 3.80609 9.03376e+21 6.00745e-05 0.774394 -8.41645 -0.494157 
0.0114375 0.000421875 3.62737 7.00316e+21 4.6571e-05 15.9489 -9.54854 -11.4285 
0.0118125 0.000421875 4.31338 6.97118e+21 4.63584e-05 19.9658 -6.81752 7.99797 
0.0114375 0.000515625 3.87983 7.48283e+21 4.97608e-05 10.32 0.409866 -3.33112 
0.0118125 0.000515625 3.70511 7.11654e+21 4.7325e-05 9.48757 0.365797 0.0551489 
0.0099375 0.000796875 3.87104 7.85528e+21 5.22376e-05 18.4368 -3.47151 -4.9153 
0.0103125 0.000796875 3.93463 8.0415e+21 5.3476e-05 15.5044 -4.17542 0.493811 
0.0099375 0.000890625 3.98957 8.17961e+21 5.43944e-05 11.2796 -6.04854 -6.02201 
0.0103125 0.000890625 4.04191 7.87666e+21 5.23798e-05 12.5301 1.25959 0.966567 
0.0046875 0.00192187 0 0 0 0 0 0 
0.0050625 0.00192187 4.18621 8.44451e+21 5.6156e-05 3.80884 0.833472 -4.71253 
0.0046875 0.00201563 0 0 0 0 0 0 
0.0050625 0.00201563 4.13546 7.61767e+21 5.06575e-05 8.72387 -3.21946 6.52698 