ITEM: TIMESTEP
500000
ITEM: NUMBER OF CELLS
41071
ITEM: BOX BOUNDS oo ao pp
0 0.12
0 0.03
-0.1 0.1
ITEM: CELLS xc yc f_out[1] f_out[2] f_out[3] f_out[4] f_out[5] f_out[6] 
0.003 0.00375 0 0 0 0 0 0 
0.003 0.00675 0 0 0 0 0 0 
0.003 0.00975 0 0 0 0 0 0 
0.003 0.01275 0 0 0 0 0 0 
0.003 0.01575 0 0 0 0 0 0 
0.003 0.01875 0 0 0 0 0 0 
0.003 0.02175 0 0 0 0 0 0 
0.003 0.02475 0 0 0 0 0 0 
0.003 0.02775 0 0 0 0 0 0 
0.009 0.00375 0 0 0 0 0 0 
0.009 0.00675 0 0 0 0 0 0 
0.009 0.00975 0 0 0 0 0 0 
0.009 0.01275 0 0 0 0 0 0 
0.009 0.01575 0 0 0 0 0 0 
0.009 0.01875 0 0 0 0 0 0 
0.009 0.02175 0 0 0 0 0 0 
0.009 0.02475 0 0 0 0 0 0 
0.009 0.02775 0 0 0 0 0 0 
0.003 0.00525 0 0 0 0 0 0 
0.003 0.00825 0 0 0 0 0 0 
0.003 0.01125 0 0 0 0 0 0 
0.003 0.01425 0 0 0 0 0 0 
0.003 0.01725 0 0 0 0 0 0 
0.003 0.02025 0 0 0 0 0 0 
0.003 0.02325 0 0 0 0 0 0 
0.003 0.02625 0 0 0 0 0 0 
0.003 0.02925 0 0 0 0 0 0 
0.009 0.00525 0 0 0 0 0 0 
0.009 0.00825 0 0 0 0 0 0 
0.009 0.01125 0 0 0 0 0 0 
0.009 0.01425 0 0 0 0 0 0 
0.009 0.01725 0 0 0 0 0 0 
0.009 0.02025 0 0 0 0 0 0 
0.009 0.02325 0 0 0 0 0 0 
0.009 0.02625 0 0 0 0 0 0 
0.009 0.02925 0 0 0 0 0 0 
0.015 0.00525 0 0 0 0 0 0 
0.015 0.00825 0 0 0 0 0 0 
0.015 0.01125 0 0 0 0 0 0 
0.015 0.01425 0 0 0 0 0 0 
0.015 0.01725 0 0 0 0 0 0 
0.015 0.02025 0 0 0 0 0 0 
0.015 0.02325 0 0 0 0 0 0 
0.015 0.02625 0 0 0 0 0 0 
0.015 0.02925 0 0 0 0 0 0 
0.0015 0.000375 0 0 0 0 0 0 
0.0015 0.001125 0 0 0 0 0 0 
0.0015 0.001875 0 0 0 0 0 0 
0.0015 0.002625 0 0 0 0 0 0 
0.0045 0.002625 0 0 0 0 0 0 
0.0075 0.002625 0 0 0 0 0 0 
0.0105 0.002625 0 0 0 0 0 0 
0.0135 0.002625 0 0 0 0 0 0 
0.0165 0.002625 0 0 0 0 0 0 
0.00375 0.0001875 0 0 0 0 0 0 
0.00375 0.0005625 0 0 0 0 0 0 
0.00375 0.0009375 0 0 0 0 0 0 
0.00375 0.0013125 0 0 0 0 0 0 
0.00375 0.0016875 0 0 0 0 0 0 
0.00375 0.0020625 0 0 0 0 0 0 
0.004875 9.375e-05 3.19936 2.45186e+22 0.000163049 72.6334 -19.5714 2.78295 
0.005625 9.375e-05 3.10734 1.54645e+22 0.000102839 88.7346 6.95363 1.26994 
0.006375 9.375e-05 3.62008 1.12754e+22 7.49816e-05 52.4924 5.97586 3.48242 
0.007875 9.375e-05 3.77127 1.08408e+22 7.20915e-05 24.0296 4.34167 6.26351 
0.009375 9.375e-05 4.02607 9.93542e+21 6.60705e-05 18.4302 -0.953719 -3.72336 
0.010125 9.375e-05 4.03159 9.82677e+21 6.5348e-05 18.7221 -4.51331 3.54813 
0.010875 9.375e-05 4.09655 1.00441e+22 6.67931e-05 20.1096 1.86912 0.338211 
0.011625 9.375e-05 4.07864 9.62154e+21 6.39832e-05 17.9508 -2.70203 -2.09635 
0.004875 0.00215625 0 0 0 0 0 0 
0.005625 0.00215625 0 0 0 0 0 0 
0.006375 0.00215625 0 0 0 0 0 0 
0.007125 0.00215625 0 0 0 0 0 0 
0.007875 0.00215625 0 0 0 0 0 0 
0.008625 0.00215625 0 0 0 0 0 0 
0.009375 0.00215625 0 0 0 0 0 0 
0.010125 0.00215625 0 0 0 0 0 0 
0.010875 0.00215625 0 0 0 0 0 0 
0.011625 0.00215625 0 0 0 0 0 0 
0.012375 0.00215625 0 0 0 0 0 0 
0.013125 0.00215625 0 0 0 0 0 0 
0.013875 0.00215625 0 0 0 0 0 0 
0.014625 0.00215625 0 0 0 0 0 0 
0.015375 0.00215625 0 0 0 0 0 0 
0.016125 0.00215625 0 0 0 0 0 0 
0.016875 0.00215625 0 0 0 0 0 0 
0.017625 0.00215625 0 0 0 0 0 0 
0.0058125 0.000234375 3.42355 1.25358e+22 8.33629e-05 75.7908 9.99206 4.24136 
0.0054375 0.000328125 3.07213 1.44452e+22 9.60609e-05 89.871 27.9812 -0.0144259 
0.0046875 0.000609375 0 0 0 0 0 0 
0.0046875 0.000703125 0 0 0 0 0 0 
0.0046875 0.000796875 0 0 0 0 0 0 
0.0046875 0.000890625 0 0 0 0 0 0 
0.0046875 0.000984375 0 0 0 0 0 0 
0.0046875 0.00107813 0 0 0 0 0 0 
0.0046875 0.00117188 0 0 0 0 0 0 
0.0046875 0.00126563 0 0 0 0 0 0 
0.0046875 0.00135937 0 0 0 0 0 0 
0.0046875 0.00145312 0 0 0 0 0 0 
0.0061875 0.000234375 3.67963 1.25744e+22 8.36198e-05 54.0207 10.4312 -5.82676 
0.0065625 0.000234375 3.70638 1.05463e+22 7.01327e-05 40.7472 1.14261 -1.15699 
0.0061875 0.000328125 3.82352 1.18101e+22 7.85369e-05 51.2422 9.5426 -0.715898 
0.0065625 0.000328125 3.71677 1.19894e+22 7.97296e-05 37.9646 12.1001 -2.99773 
0.0069375 0.000234375 3.83318 1.157e+22 7.69405e-05 34.8891 3.89805 -2.11557 
0.0073125 0.000234375 3.71804 1.10098e+22 7.32155e-05 27.7021 -1.63705 -3.68418 
0.0069375 0.000328125 3.91992 1.13824e+22 7.56927e-05 26.1122 -0.0155141 -1.16714 
0.0073125 0.000328125 3.79889 1.13548e+22 7.55092e-05 22.614 0.571439 2.03502 
0.0076875 0.000234375 3.91373 1.10871e+22 7.37293e-05 25.0188 -0.931504 0.742638 
0.0080625 0.000234375 3.86181 1.04304e+22 6.9362e-05 17.8832 1.98582 2.67139 
0.0076875 0.000328125 3.91312 1.13824e+22 7.56927e-05 22.919 3.80829 -2.38492 
0.0080625 0.000328125 4.08425 1.0996e+22 7.31237e-05 19.7174 4.65719 0.362396 
0.0084375 0.000234375 3.71705 1.06622e+22 7.09034e-05 17.1926 -4.09458 5.11959 
0.0088125 0.000234375 3.91908 1.11451e+22 7.41146e-05 20.4535 -12.5791 -3.09734 
0.0084375 0.000328125 4.08705 1.032e+22 6.8628e-05 16.7592 -0.293945 -4.91171 
0.0088125 0.000328125 4.14801 1.04028e+22 6.91785e-05 23.4602 -4.74708 -1.49711 
0.0069375 0.000421875 3.88369 1.09562e+22 7.28587e-05 28.5692 7.96001 -1.11296 
0.0091875 0.000234375 4.14356 1.016e+22 6.75637e-05 19.3968 -3.16774 -1.70751 
0.0095625 0.000234375 4.1474 1.06622e+22 7.09034e-05 16.5253 3.49601 -4.26952 
0.0091875 0.000328125 4.12109 1.09409e+22 7.27567e-05 16.0653 5.52527 -0.582669 
0.0095625 0.000328125 4.13375 1.00165e+22 6.66096e-05 16.8259 5.46332 -0.650947 
0.0099375 0.000234375 3.98714 1.00827e+22 6.70499e-05 18.1182 3.87641 7.50246 
0.0103125 0.000234375 3.76516 9.38734e+21 6.24258e-05 21.4188 2.7287 -0.242445 
0.0103125 0.000328125 3.72452 1.01131e+22 6.72518e-05 26.568 1.75195 -0.961107 
0.0106875 0.000234375 4.02871 9.40666e+21 6.25543e-05 18.9323 -2.88485 3.37608 
0.0110625 0.000234375 3.95952 9.75434e+21 6.48663e-05 17.0364 0.754972 -7.84537 
0.0106875 0.000328125 3.92009 1.02096e+22 6.7894e-05 22.8784 3.59851 2.03947 
0.0110625 0.000328125 4.06639 1.00441e+22 6.67931e-05 17.3397 -4.37043 -6.17547 
0.0091875 0.000421875 3.86573 1.01299e+22 6.73639e-05 19.7637 -0.0855643 -1.10835 
0.0095625 0.000421875 3.89621 1.07738e+22 7.16455e-05 14.6328 -0.0997317 -0.756526 
0.0099375 0.000421875 3.94791 9.94749e+21 6.61508e-05 17.5371 4.85765 -0.720123 
0.0103125 0.000421875 3.88828 1.05806e+22 7.03611e-05 22.5857 -1.47892 -2.70156 
0.0106875 0.000421875 3.90499 9.43241e+21 6.27255e-05 21.7226 2.05578 4.1509 
0.0110625 0.000421875 3.71999 9.82945e+21 6.53659e-05 19.1907 -1.59391 1.90986 
0.0114375 0.000421875 3.85638 9.86164e+21 6.55799e-05 19.6935 3.24044 0.380309 
0.0118125 0.000421875 3.79635 9.50753e+21 6.3225e-05 20.1207 0.348204 -3.98112 
0.0046875 0.00154688 0 0 0 0 0 0 
0.0046875 0.00164063 0 0 0 0 0 0 
0.0046875 0.00173438 0 0 0 0 0 0 
0.0046875 0.00182813 0 0 0 0 0 0 
0.0046875 0.00192187 0 0 0 0 0 0 
0.0046875 0.00201563 0 0 0 0 0 0 
0.0166875 0.00201563 3.83468 7.52849e+21 5.00644e-05 6.53669 2.28939 -1.11095 
0.0046875 0.000421875 0 0 0 0 0 0 
0.0050625 0.000421875 3.20825 1.54685e+22 0.000102866 55.8912 47.8136 2.69056 
0.0046875 0.000515625 0 0 0 0 0 0 
0.0050625 0.000515625 3.79819 1.00353e+22 6.67347e-05 23.5857 31.5753 2.35033 
0.0114375 0.000234375 3.95767 9.23282e+21 6.13982e-05 21.3241 -9.70718 6.41148 
0.0118125 0.000234375 3.99769 1.00827e+22 6.70499e-05 17.5005 7.73662 2.21188 
0.0114375 0.000328125 3.8575 9.38182e+21 6.23891e-05 21.7025 8.07569 -2.33947 
0.0118125 0.000328125 3.94078 9.18867e+21 6.11046e-05 13.3979 -1.26301 -8.76617 
0.00496875 0.000585938 3.60346 9.36416e+21 6.22717e-05 6.13718 8.43333 1.99096 
0.00515625 0.000585938 3.71534 1.10948e+22 7.37806e-05 15.0924 13.658 -12.4484 
0.00496875 0.000632813 3.79228 8.24129e+21 5.48046e-05 13.953 7.82983 -5.04342 
0.00515625 0.000632813 3.96694 9.78653e+21 6.50804e-05 11.4128 14.0828 0.00535201 
0.00571875 0.000585938 3.72626 1.29182e+22 8.59061e-05 37.1181 17.2927 -0.929421 
0.00590625 0.000585938 3.5648 1.0724e+22 7.13144e-05 37.1186 21.6961 3.17545 
0.00571875 0.000632813 3.81612 1.11887e+22 7.44048e-05 33.9706 13.3157 2.59398 
0.00590625 0.000632813 3.92839 1.09025e+22 7.25019e-05 35.1573 11.3066 4.91074 
0.00534375 0.000867188 3.8613 1.07123e+22 7.12367e-05 2.25457 17.7091 1.99069 
0.00553125 0.000867188 3.7964 9.91878e+21 6.59599e-05 16.8262 15.4751 2.67153 
0.00534375 0.000914063 3.72865 1.0995e+22 7.31167e-05 9.9924 5.67243 -4.17282 
0.00553125 0.000914063 3.86082 1.11139e+22 7.39071e-05 15.9101 13.7614 -5.29283 
0.00571875 0.000867188 4.08184 1.05035e+22 6.9848e-05 19.5791 13.6656 -3.12942 
0.00590625 0.000867188 3.70075 1.10255e+22 7.33196e-05 21.7353 9.78971 4.13156 
0.00571875 0.000914063 3.65127 1.05591e+22 7.02183e-05 16.4477 8.35778 -3.44592 
0.00590625 0.000914063 3.76768 1.10544e+22 7.35119e-05 10.2302 10.9508 -0.385007 
0.00496875 0.000960937 3.75071 7.80158e+21 5.18805e-05 -3.02471 7.41135 2.34467 
0.00515625 0.000960937 3.98865 9.4222e+21 6.26576e-05 10.2082 -4.32453 0.871043 
0.00496875 0.00100781 3.73889 9.10974e+21 6.05797e-05 -9.70335 13.5712 -7.12556 
0.00515625 0.00100781 3.82977 9.27145e+21 6.16551e-05 3.7036 5.97256 -3.42922 
0.00496875 0.00105469 3.51044 8.75637e+21 5.82298e-05 7.62983 -12.814 -13.3401 
0.00515625 0.00105469 3.83321 1.02844e+22 6.83915e-05 7.10807 -2.33632 -1.20805 
0.00496875 0.00110156 3.53043 1.02085e+22 6.78862e-05 0.266357 -2.88015 -2.19995 
0.00515625 0.00110156 3.92011 9.89612e+21 6.58092e-05 0.0558872 -4.31983 4.75528 
0.00534375 0.000960937 3.77863 9.7614e+21 6.49133e-05 6.42827 7.22314 -4.50399 
0.00553125 0.000960937 3.90015 1.02702e+22 6.82968e-05 8.58098 5.9021 6.51754 
0.00534375 0.00100781 3.90604 1.09964e+22 7.31258e-05 6.18177 3.7302 -0.932724 
0.00553125 0.00100781 3.84379 1.02777e+22 6.83464e-05 5.77942 9.8127 -4.47743 
0.00571875 0.000960937 4.12896 1.09298e+22 7.26829e-05 13.3471 8.84171 2.95754 
0.00590625 0.000960937 3.76499 1.11559e+22 7.41867e-05 19.5041 9.96688 -3.39381 
0.00571875 0.00100781 3.70101 1.02777e+22 6.83464e-05 9.70945 8.46501 -4.28388 
0.00590625 0.00100781 3.99013 1.11581e+22 7.42012e-05 12.5787 12.2087 -3.98457 
0.00534375 0.00105469 3.7642 9.78653e+21 6.50804e-05 -2.266 -7.72467 -2.45417 
0.00553125 0.00105469 4.0439 9.95822e+21 6.62222e-05 6.16372 1.92674 5.84479 
0.00534375 0.00110156 4.04943 9.8468e+21 6.54812e-05 2.58643 2.33273 -8.7497 
0.00553125 0.00110156 4.09436 1.05865e+22 7.04005e-05 -0.0507214 5.51912 -3.00803 
0.00571875 0.00105469 3.86819 1.09884e+22 7.30727e-05 10.8209 6.18025 0.340353 
0.00590625 0.00105469 3.83694 1.09369e+22 7.27302e-05 11.8432 14.1202 2.23079 
0.00571875 0.00110156 3.86651 1.12112e+22 7.45546e-05 10.531 2.19371 3.56871 
0.00590625 0.00110156 4.04405 1.10468e+22 7.34614e-05 5.94803 4.19313 4.77664 
0.00496875 0.00124219 3.88446 1.08896e+22 7.24157e-05 4.76891 -1.88446 3.531 
0.00515625 0.00124219 3.85924 9.78167e+21 6.50481e-05 -1.98153 -3.5487 3.44589 
0.00496875 0.00128906 3.90896 9.39788e+21 6.24959e-05 -2.12431 -7.76744 8.12439 
0.00515625 0.00128906 3.88856 9.76312e+21 6.49247e-05 -4.36327 -5.61752 -0.617861 
0.00534375 0.00114844 3.83219 9.42913e+21 6.27037e-05 7.24273 -0.364854 -1.02835 
0.00553125 0.00114844 3.9472 1.01071e+22 6.72125e-05 2.1403 6.52715 -5.0637 
0.00534375 0.00119531 3.78421 1.0241e+22 6.81027e-05 4.22997 0.453127 3.87506 
0.00553125 0.00119531 3.96198 9.84713e+21 6.54834e-05 11.048 -0.0612408 -8.32698 
0.00571875 0.00114844 4.01217 1.01544e+22 6.7527e-05 6.24227 6.99362 -0.908088 
0.00590625 0.00119531 4.10011 1.07561e+22 7.1528e-05 8.85319 5.31129 -1.41275 
0.00534375 0.00124219 3.84465 9.14025e+21 6.07826e-05 -3.36961 -6.95967 -6.84632 
0.00553125 0.00124219 3.96975 9.79625e+21 6.5145e-05 -0.500718 -2.15359 2.27832 
0.00534375 0.00128906 4.01886 1.03531e+22 6.88482e-05 -6.69501 1.07067 1.85271 
0.00553125 0.00128906 4.1768 1.02829e+22 6.83811e-05 -0.425593 2.17352 -0.906127 
0.00571875 0.00128906 4.00151 1.08026e+22 7.18376e-05 7.74792 2.88551 -2.57221 
0.00590625 0.00128906 4.13163 1.01143e+22 6.72601e-05 0.0457252 1.67531 -1.75395 
0.00496875 0.00133594 4.14967 1.14673e+22 7.62577e-05 -1.4868 -2.9025 2.89933 
0.00515625 0.00133594 3.875 9.88141e+21 6.57114e-05 -0.598414 4.28784 -1.42191 
0.00496875 0.00138281 4.04447 1.1e+22 7.31501e-05 3.61866 -11.9808 -0.429025 
0.00496875 0.00142969 3.87793 1.00694e+22 6.69615e-05 -11.3293 -7.79607 10.5414 
0.00515625 0.00142969 3.96162 1.00441e+22 6.67931e-05 1.95561 -2.02146 2.96841 
0.00496875 0.00147656 3.98984 1.0412e+22 6.92397e-05 -5.99951 -6.38501 -6.13727 
0.00515625 0.00147656 4.07963 1.04365e+22 6.94028e-05 -0.0718928 -0.830665 -1.55723 
0.00534375 0.00138281 4.08108 1.06595e+22 7.0886e-05 -1.16846 1.96866 -4.53199 
0.00553125 0.00138281 3.94849 1.06072e+22 7.05376e-05 1.04772 7.81889 3.15509 
0.00590625 0.00133594 3.83141 1.11962e+22 7.44549e-05 8.39829 -1.83048 2.94442 
0.00571875 0.00138281 4.06472 1.04369e+22 6.94056e-05 10.3087 4.38001 0.874272 
0.00590625 0.00138281 3.99974 1.07119e+22 7.12343e-05 -0.777888 1.54952 1.06128 
0.00553125 0.00142969 4.08437 9.5881e+21 6.37608e-05 -3.22742 0.413837 -3.85457 
0.00534375 0.00147656 4.00816 1.04365e+22 6.94028e-05 -0.309226 -7.37392 -5.88126 
0.00553125 0.00147656 3.89028 1.02648e+22 6.8261e-05 -5.69082 2.44456 -1.07861 
0.00590625 0.00142969 4.00215 1.0424e+22 6.93199e-05 -1.63982 0.24851 0.976551 
0.00721875 0.000492188 4.15687 1.14054e+22 7.58456e-05 21.1872 9.52807 1.67762 
0.00740625 0.000492188 3.87775 1.12214e+22 7.46223e-05 25.4446 1.49322 2.17785 
0.00721875 0.000539063 3.93992 1.14549e+22 7.61754e-05 14.1309 5.36824 4.72383 
0.00740625 0.000539063 3.88279 1.21268e+22 8.06431e-05 17.6715 8.08763 -9.74207 
0.00684375 0.000679687 3.86053 1.09765e+22 7.2994e-05 20.63 -2.63558 -3.93023 
0.00703125 0.000679687 3.94458 1.1163e+22 7.42342e-05 22.4184 7.64074 -1.93836 
0.00684375 0.000726562 4.09553 1.06422e+22 7.07708e-05 31.2439 0.320315 -0.604663 
0.00703125 0.000726562 3.88049 1.03431e+22 6.87819e-05 16.4729 -0.0933873 2.09376 
0.00759375 0.000492188 3.83196 1.12214e+22 7.46223e-05 21.6094 2.1122 -1.57596 
0.00778125 0.000492188 4.21191 1.1295e+22 7.51116e-05 22.9243 -4.14766 -13.0692 
0.00759375 0.000539063 4.20581 1.08167e+22 7.1931e-05 20.9007 -3.99708 10.0379 
0.00778125 0.000539063 3.91132 1.05144e+22 6.99205e-05 21.6671 6.08257 -7.24078 
0.00759375 0.000679687 3.60182 1.1243e+22 7.47657e-05 21.0049 -0.248587 -0.777363 
0.00778125 0.000679687 4.13738 9.69772e+21 6.44898e-05 26.3564 -0.416738 1.42569 
0.00759375 0.000726562 3.87919 1.02435e+22 6.8119e-05 20.0465 2.67125 -4.32739 
0.00778125 0.000726562 3.90215 1.05924e+22 7.04393e-05 27.7007 1.75371 -0.296998 
0.00834375 0.000585938 4.21371 9.6114e+21 6.39158e-05 11.433 -5.76162 1.46806 
0.00853125 0.000585938 4.23864 1.11566e+22 7.41917e-05 18.6985 3.8901 -2.02596 
0.00834375 0.000632813 4.02873 1.14748e+22 7.63077e-05 13.4592 -2.39061 -3.89894 
0.00853125 0.000632813 4.24027 9.90099e+21 6.58416e-05 20.5485 -2.79102 -3.49049 
0.00834375 0.000679687 3.84939 1.06036e+22 7.05136e-05 13.4178 -1.27324 6.99126 
0.00853125 0.000679687 3.61607 1.13229e+22 7.52972e-05 18.6157 -0.545794 4.69661 
0.00834375 0.000726562 4.07828 1.1041e+22 7.34226e-05 12.0268 -6.56144 -2.81115 
0.00853125 0.000726562 3.93035 1.05176e+22 6.99421e-05 25.4994 -7.90969 2.63349 
0.00909375 0.000492188 3.97396 1.00809e+22 6.70377e-05 20.706 4.91201 1.55389 
0.00928125 0.000492188 3.68889 9.74974e+21 6.48357e-05 12.322 -2.29149 3.0657 
0.00909375 0.000539063 3.8204 1.12534e+22 7.4835e-05 25.3684 -8.54914 -6.2623 
0.00928125 0.000539063 3.90128 1.01784e+22 6.76866e-05 12.904 3.74101 3.67486 
0.00984375 0.000585938 4.17345 9.51869e+21 6.32993e-05 21.7154 -2.25124 1.50358 
0.0100313 0.000585938 3.80345 1.10639e+22 7.35751e-05 17.7716 -2.72542 -0.15057 
0.00984375 0.000632813 3.69389 9.32868e+21 6.20357e-05 19.7205 6.51728 -5.55938 
0.0100313 0.000632813 3.98072 1.00441e+22 6.67931e-05 18.267 12.062 -0.161622 
0.0102188 0.000585938 4.03372 1.04458e+22 6.94648e-05 19.9222 -9.64963 -0.923026 
0.0104063 0.000585938 3.82297 1.10639e+22 7.35751e-05 16.6248 1.17203 6.9965 
0.0102188 0.000632813 4.02963 1.01585e+22 6.75542e-05 10.4045 -1.74739 -0.0560596 
0.0104063 0.000632813 4.02886 9.78653e+21 6.50804e-05 17.5241 -7.16652 -6.4815 
0.0113437 0.000492188 3.89952 9.52899e+21 6.33678e-05 14.2357 -3.10913 0.823947 
0.0115312 0.000492188 4.07175 9.23466e+21 6.14105e-05 24.9651 -1.77349 0.757393 
0.0113437 0.000539063 3.75655 9.74174e+21 6.47826e-05 18.9864 3.63474 -8.51556 
0.0115312 0.000539063 4.03724 8.6332e+21 5.74108e-05 24.4072 -5.89193 -10.8382 
0.00646875 0.000773438 3.76028 1.17064e+22 7.78474e-05 22.147 10.2198 3.53449 
0.00665625 0.000773438 4.10611 1.12381e+22 7.47335e-05 21.1263 3.41951 -4.72687 
0.00646875 0.000820313 3.84353 1.16114e+22 7.72157e-05 21.1455 8.96864 -2.08647 
0.00665625 0.000820313 3.9848 1.0331e+22 6.87014e-05 22.9472 9.68001 2.09762 
0.00609375 0.000867188 3.81558 1.10464e+22 7.34585e-05 28.1039 10.0124 -0.340629 
0.00628125 0.000867188 4.11658 1.11926e+22 7.44305e-05 25.7497 10.605 -3.13154 
0.00609375 0.000914063 3.83383 1.00639e+22 6.69248e-05 18.6046 8.36716 -2.89736 
0.00628125 0.000914063 3.91551 1.11337e+22 7.40388e-05 11.5484 13.9859 3.40951 
0.00646875 0.000867188 4.06124 1.10255e+22 7.33196e-05 19.3423 3.72375 -2.24337 
0.00665625 0.000867188 3.966 1.12343e+22 7.47082e-05 21.8627 0.0895445 -1.51101 
0.00646875 0.000914063 3.89021 1.0579e+22 7.03501e-05 21.8212 4.79776 1.9805 
0.00665625 0.000914063 3.75885 1.0995e+22 7.31167e-05 17.3857 10.658 -3.14862 
0.00684375 0.000773438 3.88912 1.12615e+22 7.48892e-05 21.0405 4.06445 4.02462 
0.00703125 0.000773438 3.80426 1.11445e+22 7.41107e-05 27.5364 8.9548 -5.78107 
0.00684375 0.000820313 4.07705 9.75709e+21 6.48847e-05 22.3566 -0.669909 9.79063 
0.00703125 0.000820313 3.93373 1.04414e+22 6.94354e-05 21.6161 6.91491 -7.04654 
0.00721875 0.000773438 3.84612 1.11445e+22 7.41107e-05 17.7364 -3.77652 4.03232 
0.00740625 0.000773438 3.70366 1.00909e+22 6.71044e-05 14.8018 -6.17551 -0.897204 
0.00721875 0.000820313 3.94241 1.02427e+22 6.81142e-05 16.9689 6.18304 2.79257 
0.00740625 0.000820313 3.80009 1.05297e+22 7.00226e-05 17.5881 0.7007 0.105037 
0.00684375 0.000867188 3.90422 1.13805e+22 7.56803e-05 22.5383 7.36276 0.903789 
0.00703125 0.000867188 4.12713 1.08585e+22 7.22087e-05 20.5588 4.54511 4.15921 
0.00684375 0.000914063 4.0037 1.05591e+22 7.02183e-05 16.3398 7.02431 -3.89013 
0.00703125 0.000914063 4.12233 1.09157e+22 7.25897e-05 19.7108 3.0902 5.28945 
0.00721875 0.000867188 4.1426 1.11299e+22 7.40139e-05 17.465 3.19041 1.36056 
0.00740625 0.000867188 3.8969 1.05243e+22 6.99869e-05 21.1488 5.13962 -1.64749 
0.00721875 0.000914063 3.79663 1.12525e+22 7.48293e-05 21.9799 0.836209 -4.06475 
0.00740625 0.000914063 3.75473 1.08563e+22 7.21945e-05 14.8121 0.667826 -4.81207 
0.00609375 0.000960937 3.99425 9.47874e+21 6.30336e-05 17.8149 13.3141 -2.27446 
0.00628125 0.000960937 3.7573 1.01194e+22 6.72943e-05 17.2416 6.47798 5.39424 
0.00609375 0.00100781 4.04481 1.12659e+22 7.49181e-05 8.48161 3.25208 -0.88032 
0.00628125 0.00100781 4.02404 1.08706e+22 7.22894e-05 18.0233 9.02031 -5.38248 
0.00646875 0.000960937 3.94516 1.09674e+22 7.29335e-05 14.9226 2.25304 -6.19263 
0.00665625 0.000960937 3.98112 1.16458e+22 7.74449e-05 13.1624 7.58501 -0.715098 
0.00646875 0.00100781 4.23932 1.0637e+22 7.07361e-05 12.395 4.02258 -4.70535 
0.00665625 0.00100781 3.91628 1.08706e+22 7.22894e-05 19.0408 0.297081 0.751887 
0.00609375 0.00105469 3.976 1.15035e+22 7.6498e-05 9.76594 -0.672949 -2.52421 
0.00628125 0.00105469 3.67002 1.15893e+22 7.70689e-05 15.7284 5.60051 -3.31132 
0.00609375 0.00110156 3.8976 1.1129e+22 7.4008e-05 9.31072 3.86008 -4.57257 
0.00628125 0.00110156 3.90413 1.04386e+22 6.94167e-05 15.7694 1.7082 -1.31749 
0.00646875 0.00105469 3.7387 1.02501e+22 6.81632e-05 12.2522 1.33722 -3.90993 
0.00665625 0.00105469 3.81978 1.06107e+22 7.05609e-05 16.6596 -3.67571 -3.26349 
0.00646875 0.00110156 4.09145 1.15071e+22 7.65223e-05 17.3675 8.46184 -2.54827 
0.00665625 0.00110156 3.93035 1.11783e+22 7.4336e-05 16.9012 4.0346 -0.741498 
0.00684375 0.000960937 3.90308 1.06659e+22 7.09285e-05 18.0736 1.97013 0.71035 
0.00703125 0.000960937 3.9899 1.04398e+22 6.94247e-05 12.7541 4.73364 -1.21541 
0.00684375 0.00100781 3.90694 1.11581e+22 7.42012e-05 14.9494 2.63443 2.59004 
0.00703125 0.00100781 3.98807 1.13378e+22 7.53961e-05 21.7662 4.05642 2.78274 
0.00721875 0.000960937 4.03314 1.12313e+22 7.46879e-05 15.3324 2.23192 2.16 
0.00740625 0.000960937 3.92048 1.15516e+22 7.68183e-05 18.7985 4.29969 -0.622924 
0.00721875 0.00100781 3.85982 1.09425e+22 7.27674e-05 16.9829 1.68939 0.401671 
0.00740625 0.00100781 3.97445 1.08347e+22 7.20505e-05 10.6339 1.58304 -2.29219 
0.00684375 0.00105469 4.19233 1.09025e+22 7.25019e-05 13.935 4.65738 -0.0897044 
0.00703125 0.00105469 3.92881 1.08682e+22 7.22735e-05 18.2983 1.43123 -3.21706 
0.00684375 0.00110156 4.07865 1.09482e+22 7.28055e-05 19.7213 7.11927 -0.341438 
0.00703125 0.00110156 3.8876 1.08496e+22 7.21496e-05 19.4395 2.20694 5.95575 
0.00740625 0.00105469 3.91689 1.06622e+22 7.09034e-05 18.5634 4.70768 -0.646555 
0.00721875 0.00110156 3.9457 1.01756e+22 6.76676e-05 6.53072 3.99529 -0.895066 
0.00740625 0.00110156 4.00462 1.08496e+22 7.21496e-05 3.83211 2.34208 2.22581 
0.00759375 0.000773438 3.99185 1.06294e+22 7.06854e-05 27.5388 7.63248 1.16901 
0.00778125 0.000773438 4.01681 1.03016e+22 6.85057e-05 25.5693 3.11153 -12.3319 
0.00759375 0.000820313 3.89246 1.02869e+22 6.84078e-05 20.7823 -1.56836 2.42397 
0.00778125 0.000820313 3.79584 1.09933e+22 7.31054e-05 19.3955 6.64171 -2.25348 
0.00759375 0.000867188 4.11199 1.13178e+22 7.52637e-05 18.0481 2.3425 0.95737 
0.00778125 0.000867188 4.09521 1.06288e+22 7.06812e-05 18.282 -7.71918 8.46489 
0.00759375 0.000914063 4.06921 1.09554e+22 7.28532e-05 15.0326 2.25109 2.46662 
0.00778125 0.000914063 3.83851 1.01827e+22 6.77152e-05 19.509 5.82727 -0.833382 
0.00796875 0.000867188 3.92844 1.00232e+22 6.66542e-05 16.5316 -0.272584 -3.08788 
0.00815625 0.000867188 4.39431 1.00649e+22 6.69319e-05 21.3565 6.654 6.46964 
0.00796875 0.000914063 4.11671 1.09554e+22 7.28532e-05 11.0648 1.85796 0.491786 
0.00815625 0.000914063 3.82603 1.09157e+22 7.25897e-05 10.707 3.21148 -1.07485 
0.00871875 0.000773438 4.10147 1.12147e+22 7.45778e-05 24.7466 3.02906 3.28789 
0.00890625 0.000773438 4.03045 1.0606e+22 7.05297e-05 22.7102 -8.88669 -0.507 
0.00871875 0.000820313 3.87692 1.01765e+22 6.76738e-05 16.1689 4.42421 3.46293 
0.00890625 0.000820313 4.07999 1.03752e+22 6.8995e-05 18.4618 6.24578 -6.09963 
0.00834375 0.000867188 4.09432 9.96054e+21 6.62376e-05 13.1903 -0.721058 -1.52341 
0.00853125 0.000867188 3.75556 1.04199e+22 6.92926e-05 17.7921 -2.3994 -3.00658 
0.00834375 0.000914063 3.77929 1.10544e+22 7.35119e-05 12.8925 1.7484 -2.64664 
0.00853125 0.000914063 3.97147 1.04997e+22 6.98231e-05 14.5287 3.84689 7.77044 
0.00759375 0.000960937 4.02703 1.06471e+22 7.08031e-05 18.7131 5.08926 6.17661 
0.00778125 0.000960937 3.80173 1.06282e+22 7.06778e-05 9.92842 -3.11098 -6.02867 
0.00759375 0.00100781 4.17469 1.0637e+22 7.07361e-05 17.6183 -2.95156 3.16828 
0.00778125 0.00100781 3.89227 1.01159e+22 6.7271e-05 11.9754 1.58248 -0.905749 
0.00796875 0.000960937 3.99053 1.03644e+22 6.89234e-05 9.85272 1.4752 -5.30957 
0.00815625 0.000960937 4.2167 1.04021e+22 6.9174e-05 15.1124 -5.60254 -1.0568 
0.00796875 0.00100781 3.76803 1.09425e+22 7.27674e-05 14.8945 -2.23911 -0.413852 
0.00815625 0.00100781 3.93638 1.04573e+22 6.95412e-05 21.6845 7.45731 0.205029 
0.00759375 0.00105469 3.88528 1.06107e+22 7.05609e-05 13.6314 5.61822 0.771797 
0.00778125 0.00105469 3.90322 1.10399e+22 7.34153e-05 8.77827 4.66987 1.37316 
0.00759375 0.00110156 3.90443 1.06687e+22 7.09471e-05 7.11644 4.80919 1.77155 
0.00778125 0.00110156 3.97987 1.01427e+22 6.7449e-05 20.1813 -1.98785 -0.856071 
0.00796875 0.00105469 3.85801 1.05591e+22 7.02183e-05 17.9013 1.521 -4.83661 
0.00815625 0.00105469 4.13762 1.10056e+22 7.31869e-05 12.1555 -0.139792 3.90058 
0.00796875 0.00110156 3.86271 1.06523e+22 7.08378e-05 11.6729 -3.19499 -5.65911 
0.00815625 0.00110156 4.00213 1.02249e+22 6.79955e-05 19.5133 0.50203 -2.70578 
0.00871875 0.000960937 3.86559 1.08921e+22 7.24322e-05 11.3596 3.37015 -6.24707 
0.00890625 0.000960937 3.93208 1.16647e+22 7.75702e-05 15.5728 1.51613 -7.55826 
0.00871875 0.00100781 3.99382 9.86439e+21 6.55982e-05 19.3828 5.715 1.34773 
0.00890625 0.00100781 4.11306 1.03675e+22 6.89438e-05 17.4058 0.864486 -2.22479 
0.00834375 0.00105469 3.9744 1.05591e+22 7.02183e-05 17.2143 -4.89606 -1.87204 
0.00853125 0.00105469 4.05341 1.04046e+22 6.91908e-05 14.9211 4.09178 3.53595 
0.00834375 0.00110156 4.21723 1.08167e+22 7.1931e-05 19.5981 -0.650242 7.21735 
0.00853125 0.00110156 3.85924 1.00769e+22 6.70117e-05 14.4584 -3.50275 0.853738 
0.00890625 0.00105469 4.0535 1.06622e+22 7.09034e-05 8.11384 -3.7797 -0.144796 
0.00871875 0.00110156 3.91427 9.929e+21 6.60278e-05 8.06205 -2.19497 3.83046 
0.00890625 0.00110156 3.80673 1.02906e+22 6.84328e-05 13.8043 3.12018 0.334834 
0.00609375 0.00114844 3.9264 1.11478e+22 7.41329e-05 6.99748 3.27231 2.72818 
0.00628125 0.00114844 4.12229 1.08325e+22 7.20358e-05 12.5249 4.09932 -0.482512 
0.00609375 0.00119531 4.09327 1.01047e+22 6.7196e-05 8.07468 4.12414 4.69832 
0.00628125 0.00119531 3.71989 1.11954e+22 7.44496e-05 9.1578 1.04937 1.80916 
0.00646875 0.00114844 4.15407 1.07694e+22 7.16164e-05 11.7855 -2.08591 0.398564 
0.00665625 0.00114844 4.12476 1.05644e+22 7.02533e-05 7.40651 10.4977 -1.98507 
0.00646875 0.00119531 3.80986 9.99862e+21 6.64908e-05 6.27468 9.42208 -5.00399 
0.00665625 0.00119531 3.9102 1.03925e+22 6.91102e-05 6.54269 5.68173 6.12512 
0.00609375 0.00124219 3.87743 1.06855e+22 7.10585e-05 6.04865 3.05444 1.21831 
0.00628125 0.00124219 4.05744 1.05397e+22 7.00891e-05 14.1943 5.34598 -0.768374 
0.00609375 0.00128906 4.03876 1.09853e+22 7.3052e-05 5.09586 3.66079 0.700423 
0.00628125 0.00128906 3.87334 1.05357e+22 7.00626e-05 10.8008 -1.84958 4.6323 
0.00646875 0.00124219 3.80527 1.11228e+22 7.39668e-05 4.50044 10.8475 -3.11861 
0.00665625 0.00124219 4.0305 1.08313e+22 7.20279e-05 12.8116 6.71622 1.97759 
0.00646875 0.00128906 3.91873 1.05357e+22 7.00626e-05 10.3366 2.72008 4.8438 
0.00665625 0.00128906 4.1562 1.11398e+22 7.40796e-05 11.3215 2.38837 2.30465 
0.00684375 0.00114844 3.97545 1.07852e+22 7.17213e-05 12.3498 6.52262 -3.32922 
0.00703125 0.00114844 3.83365 1.05171e+22 6.99387e-05 11.9676 1.17132 -0.525729 
0.00684375 0.00119531 4.08898 1.0847e+22 7.21325e-05 12.7044 -0.582902 3.26766 
0.00703125 0.00119531 4.04156 1.12863e+22 7.5054e-05 12.0969 0.893945 0.8386 
0.00721875 0.00114844 4.16835 1.06905e+22 7.10921e-05 11.479 0.900142 0.494031 
0.00740625 0.00114844 3.82765 1.10059e+22 7.31892e-05 12.1417 0.96287 -0.22945 
0.00721875 0.00119531 4.02111 1.12409e+22 7.47518e-05 8.75552 -0.774603 1.2256 
0.00740625 0.00119531 3.73879 1.08167e+22 7.1931e-05 15.649 9.16302 6.03873 
0.00684375 0.00124219 3.85181 1.13269e+22 7.5324e-05 8.98075 5.39057 3.05309 
0.00703125 0.00124219 3.77924 1.0496e+22 6.97983e-05 8.012 4.85236 -1.09993 
0.00684375 0.00128906 3.94398 1.04936e+22 6.97824e-05 7.54868 5.03797 2.35073 
0.00703125 0.00128906 3.969 1.11398e+22 7.40796e-05 5.91143 -2.9138 5.98084 
0.00721875 0.00124219 3.87525 1.07292e+22 7.13493e-05 9.40585 4.89127 1.96039 
0.00740625 0.00124219 3.92512 1.0321e+22 6.8635e-05 12.9594 6.08667 -0.566669 
0.00721875 0.00128906 3.93039 1.07184e+22 7.12771e-05 13.455 3.50971 5.89501 
0.00740625 0.00128906 3.95993 1.05779e+22 7.03429e-05 12.6519 0.397075 -0.309969 
0.00609375 0.00133594 3.87075 9.98985e+21 6.64325e-05 7.43527 2.93413 6.82164 
0.00628125 0.00133594 4.07989 1.05456e+22 7.01282e-05 0.131482 5.87589 3.01523 
0.00609375 0.00138281 3.88131 1.09869e+22 7.30631e-05 3.44763 3.17687 -4.2997 
0.00628125 0.00138281 4.00478 1.07774e+22 7.16697e-05 6.20947 -0.770149 -0.198372 
0.00646875 0.00133594 4.09008 1.04643e+22 6.95874e-05 7.92665 7.59534 0.117765 
0.00665625 0.00133594 3.98403 1.10878e+22 7.37338e-05 14.5455 0.98185 -0.386802 
0.00646875 0.00138281 3.91611 1.08298e+22 7.20181e-05 7.74558 7.60922 -1.27522 
0.00665625 0.00138281 3.79342 1.10131e+22 7.32372e-05 5.28956 6.18404 -0.161698 
0.00609375 0.00142969 3.76964 1.04494e+22 6.94884e-05 5.81275 2.09452 -0.76296 
0.00609375 0.00147656 3.93959 1.07308e+22 7.13601e-05 6.39968 -0.460185 -4.31733 
0.00628125 0.00147656 4.00827 1.03384e+22 6.87504e-05 11.2607 6.75089 0.672499 
0.00646875 0.00142969 3.74474 1.09687e+22 7.29417e-05 5.54943 2.95881 7.20877 
0.00665625 0.00142969 4.1187 1.11207e+22 7.39525e-05 9.69217 2.87624 -1.03429 
0.00646875 0.00147656 4.11252 1.05591e+22 7.02183e-05 5.02734 9.52241 -3.56057 
0.00665625 0.00147656 3.96906 1.07063e+22 7.1197e-05 4.07021 0.217162 -0.146615 
0.00684375 0.00133594 3.96901 1.09929e+22 7.31028e-05 9.86167 4.19451 -1.2266 
0.00703125 0.00133594 3.97444 1.08302e+22 7.20211e-05 5.53379 7.13708 0.915108 
0.00684375 0.00138281 4.16301 1.12619e+22 7.48918e-05 11.4098 3.65023 -2.49544 
0.00703125 0.00138281 4.03007 1.05941e+22 7.04506e-05 9.56384 5.46087 3.72765 
0.00721875 0.00133594 3.83409 1.05456e+22 7.01282e-05 9.80961 1.25372 -7.78626 
0.00740625 0.00133594 3.90614 1.0532e+22 7.00381e-05 13.2671 -0.226074 6.29985 
0.00721875 0.00138281 3.88634 1.12357e+22 7.47177e-05 12.1786 -1.80568 -1.31068 
0.00703125 0.00142969 3.91808 1.088e+22 7.23521e-05 7.97444 9.51538 -3.5202 
0.00684375 0.00147656 3.94532 1.06695e+22 7.09523e-05 8.22782 2.81384 3.53516 
0.00721875 0.00142969 4.01014 1.11713e+22 7.42894e-05 9.89932 -0.53996 -3.63629 
0.00740625 0.00142969 4.04481 1.06014e+22 7.04991e-05 15.2626 8.77557 -6.07264 
0.00740625 0.00147656 3.83817 1.07063e+22 7.1197e-05 11.5011 7.60593 5.65926 
0.00759375 0.00114844 3.96554 1.07852e+22 7.17213e-05 13.3851 0.727829 -7.89384 
0.00778125 0.00114844 3.89073 1.05802e+22 7.03581e-05 12.561 6.54776 4.03718 
0.00759375 0.00119531 3.96486 1.13015e+22 7.51548e-05 14.0558 0.387515 -2.73921 
0.00778125 0.00119531 4.08851 1.08167e+22 7.1931e-05 10.1716 8.46114 4.47412 
0.00796875 0.00114844 3.79863 1.05171e+22 6.99387e-05 9.7338 5.51754 -0.772382 
0.00815625 0.00114844 3.90216 1.08798e+22 7.23504e-05 9.4191 1.26349 0.695684 