ITEM: TIMESTEP
500000
ITEM: NUMBER OF CELLS
8788
ITEM: BOX BOUNDS oo ao pp
0 0.12
0 0.03
-0.1 0.1
ITEM: CELLS xc yc f_out[1] f_out[2] f_out[3] f_out[4] f_out[5] f_out[6] 
0.003 0.00375 0 0 0 0 0 0 
0.003 0.00675 0 0 0 0 0 0 
0.003 0.00975 0 0 0 0 0 0 
0.003 0.01275 0 0 0 0 0 0 
0.003 0.01575 0 0 0 0 0 0 
0.003 0.01875 0 0 0 0 0 0 
0.003 0.02175 0 0 0 0 0 0 
0.003 0.02475 0 0 0 0 0 0 
0.003 0.02775 0 0 0 0 0 0 
0.009 0.00375 0 0 0 0 0 0 
0.009 0.00675 0 0 0 0 0 0 
0.009 0.00975 0 0 0 0 0 0 
0.009 0.01275 0 0 0 0 0 0 
0.009 0.01575 0 0 0 0 0 0 
0.009 0.01875 0 0 0 0 0 0 
0.009 0.02175 0 0 0 0 0 0 
0.009 0.02475 0 0 0 0 0 0 
0.009 0.02775 0 0 0 0 0 0 
0.003 0.00525 0 0 0 0 0 0 
0.003 0.00825 0 0 0 0 0 0 
0.003 0.01125 0 0 0 0 0 0 
0.003 0.01425 0 0 0 0 0 0 
0.003 0.01725 0 0 0 0 0 0 
0.003 0.02025 0 0 0 0 0 0 
0.003 0.02325 0 0 0 0 0 0 
0.003 0.02625 0 0 0 0 0 0 
0.003 0.02925 0 0 0 0 0 0 
0.009 0.00525 0 0 0 0 0 0 
0.009 0.00825 0 0 0 0 0 0 
0.009 0.01125 0 0 0 0 0 0 
0.009 0.01425 0 0 0 0 0 0 
0.009 0.01725 0 0 0 0 0 0 
0.009 0.02025 0 0 0 0 0 0 
0.009 0.02325 0 0 0 0 0 0 
0.009 0.02625 0 0 0 0 0 0 
0.009 0.02925 0 0 0 0 0 0 
0.015 0.00525 0 0 0 0 0 0 
0.015 0.00825 0 0 0 0 0 0 
0.015 0.01125 0 0 0 0 0 0 
0.015 0.01425 0 0 0 0 0 0 
0.015 0.01725 0 0 0 0 0 0 
0.015 0.02025 0 0 0 0 0 0 
0.015 0.02325 0 0 0 0 0 0 
0.015 0.02625 0 0 0 0 0 0 
0.015 0.02925 0 0 0 0 0 0 
0.0015 0.000375 0 0 0 0 0 0 
0.0015 0.001125 0 0 0 0 0 0 
0.0015 0.001875 0 0 0 0 0 0 
0.0015 0.002625 0 0 0 0 0 0 
0.0045 0.002625 0 0 0 0 0 0 
0.0075 0.002625 0 0 0 0 0 0 
0.0105 0.002625 0 0 0 0 0 0 
0.0135 0.002625 0 0 0 0 0 0 
0.0165 0.002625 0 0 0 0 0 0 
0.00375 0.0001875 0 0 0 0 0 0 
0.00375 0.0005625 0 0 0 0 0 0 
0.00375 0.0009375 0 0 0 0 0 0 
0.00375 0.0013125 0 0 0 0 0 0 
0.00375 0.0016875 0 0 0 0 0 0 
0.00375 0.0020625 0 0 0 0 0 0 
0.004875 0.00046875 3.86985 7.33893e+21 4.88039e-05 1.63225 7.05773 -1.95018 
0.004875 0.00065625 4.17242 8.41818e+21 5.59809e-05 -10.8266 -6.68387 -3.40272 
0.004875 0.00084375 3.76983 7.5308e+21 5.00798e-05 3.4317 1.45359 3.99366 
0.004875 0.00103125 3.95703 7.99629e+21 5.31754e-05 5.72728 -4.13054 3.64297 
0.006375 9.375e-05 4.03838 8.99379e+21 5.98087e-05 0.561349 -3.97463 2.41032 
0.007125 9.375e-05 3.91105 8.09441e+21 5.38278e-05 21.035 -1.42589 7.93815 
0.006375 0.00028125 3.78993 8.20233e+21 5.45455e-05 6.70872 -1.85255 4.15766 
0.007125 0.00028125 3.96786 7.0871e+21 4.71292e-05 17.5278 -0.332714 -0.346049 
0.007875 9.375e-05 3.4822 7.0871e+21 4.71292e-05 9.07162 10.5329 -1.82832 
0.008625 9.375e-05 4.49913 6.97918e+21 4.64115e-05 23.9119 -8.21097 -3.47671 
0.007875 0.00028125 3.80489 7.83059e+21 5.20734e-05 13.8064 -3.01237 1.10657 
0.008625 0.00028125 3.7399 7.43486e+21 4.94418e-05 12.0352 0.997641 -3.31822 
0.007875 0.00046875 3.82327 7.36052e+21 4.89474e-05 14.9815 5.20008 -3.4346 
0.010875 9.375e-05 4.09036 7.26698e+21 4.83254e-05 22.1251 5.83448 -4.20492 
0.011625 9.375e-05 3.78108 6.25968e+21 4.16268e-05 11.209 3.16662 6.33212 
0.010875 0.00028125 4.01786 6.54748e+21 4.35407e-05 20.2583 -8.67806 4.81423 
0.011625 0.00028125 3.90551 6.64341e+21 4.41787e-05 16.9688 2.24317 -4.69839 
0.011625 0.00046875 3.94125 6.55467e+21 4.35886e-05 18.5221 -0.248567 -4.26377 
0.004875 0.00215625 0 0 0 0 0 0 
0.005625 0.00215625 0 0 0 0 0 0 
0.006375 0.00215625 0 0 0 0 0 0 
0.007125 0.00215625 0 0 0 0 0 0 
0.007875 0.00215625 0 0 0 0 0 0 
0.008625 0.00215625 0 0 0 0 0 0 
0.009375 0.00215625 0 0 0 0 0 0 
0.010125 0.00215625 0 0 0 0 0 0 
0.010875 0.00215625 0 0 0 0 0 0 
0.011625 0.00215625 0 0 0 0 0 0 
0.012375 0.00215625 0 0 0 0 0 0 
0.013125 0.00215625 0 0 0 0 0 0 
0.013875 0.00215625 0 0 0 0 0 0 
0.014625 0.00215625 0 0 0 0 0 0 
0.015375 0.00215625 0 0 0 0 0 0 
0.016125 0.00215625 0 0 0 0 0 0 
0.016875 0.00215625 0 0 0 0 0 0 
0.017625 0.00215625 0 0 0 0 0 0 
0.0054375 0.000796875 3.84208 8.66789e+21 5.76415e-05 2.32382 -5.05105 0.613508 
0.0058125 0.000796875 4.25886 7.58441e+21 5.04363e-05 3.49541 -6.38877 5.59572 
0.0054375 0.000890625 4.02114 7.92211e+21 5.2682e-05 0.637182 6.09501 0.51426 
0.0058125 0.000890625 3.9682 8.36138e+21 5.56032e-05 15.5194 -3.76455 2.8494 
0.0054375 0.000984375 3.97115 8.71626e+21 5.79632e-05 5.57129 -7.35348 0.632225 
0.0058125 0.000984375 3.89071 8.34623e+21 5.55025e-05 10.6052 -4.3061 0.995794 
0.0054375 0.00107813 4.00891 7.87074e+21 5.23404e-05 6.64492 -4.48032 2.08335 
0.0058125 0.00107813 3.91874 8.33372e+21 5.54192e-05 9.30761 -1.02149 -3.79476 
0.0054375 0.00117188 3.78709 7.71307e+21 5.12919e-05 5.19292 -4.59106 1.77822 
0.0058125 0.00117188 4.11991 8.26565e+21 5.49666e-05 6.85116 0.558456 -3.85875 
0.0058125 0.00126563 4.09883 8.15437e+21 5.42265e-05 16.1312 -5.36998 -10.0119 
0.0054375 0.00135937 3.99019 7.67139e+21 5.10147e-05 5.39145 -5.16354 0.0409973 
0.0058125 0.00135937 3.89732 8.61419e+21 5.72843e-05 10.0024 -6.86614 1.79296 
0.0058125 0.00145312 4.11435 7.88204e+21 5.24156e-05 5.66106 -9.01774 -0.604149 
0.0061875 0.000609375 3.80342 7.79277e+21 5.18219e-05 9.86306 -4.37362 7.66601 
0.0065625 0.000609375 3.98469 7.81491e+21 5.19691e-05 14.1886 -4.0991 6.14402 
0.0061875 0.000703125 4.06481 8.42298e+21 5.60128e-05 0.163529 -3.38909 -4.64812 
0.0065625 0.000703125 4.03808 7.65551e+21 5.09092e-05 12.8191 1.93869 -0.607908 
0.0091875 0.000609375 3.78386 6.88509e+21 4.57858e-05 16.9702 -1.35258 8.23721 
0.0095625 0.000609375 3.9773 7.9256e+21 5.27053e-05 13.3477 -8.55456 1.95532 
0.0091875 0.000703125 3.96962 7.46364e+21 4.96332e-05 18.0508 -4.4527 -4.10092 
0.0095625 0.000703125 3.48059 6.81129e+21 4.52951e-05 16.2131 2.72286 -0.799886 
0.0099375 0.000609375 4.05095 6.73012e+21 4.47553e-05 4.77089 15.394 -0.0628049 
0.0103125 0.000609375 4.06927 6.68584e+21 4.44609e-05 14.9053 -2.49088 6.86941 
0.0099375 0.000703125 3.78688 6.71536e+21 4.46571e-05 23.3957 -4.97805 5.18539 
0.0103125 0.000703125 3.65957 6.58105e+21 4.3764e-05 14.5518 -8.00211 2.77553 
0.0061875 0.000796875 4.09756 7.7537e+21 5.15621e-05 12.6358 -10.944 -6.65276 
0.0065625 0.000796875 4.05396 7.82142e+21 5.20124e-05 18.3919 -1.42219 -4.15485 
0.0061875 0.000890625 4.02884 8.11902e+21 5.39915e-05 7.94293 -5.40937 0.912847 
0.0065625 0.000890625 3.90235 7.90696e+21 5.25813e-05 16.8658 -4.20769 -5.45956 
0.0069375 0.000984375 4.02788 7.6747e+21 5.10367e-05 14.0568 -3.45851 -3.83629 
0.0073125 0.000984375 4.15269 7.63358e+21 5.07633e-05 9.42923 -2.33042 2.4881 
0.0069375 0.00107813 3.99088 7.80817e+21 5.19243e-05 15.3718 0.479003 -0.449094 
0.0073125 0.00107813 3.99039 7.58294e+21 5.04265e-05 17.7824 4.40127 -0.934944 
0.0084375 0.000984375 3.98224 7.22244e+21 4.80292e-05 21.7295 -6.49958 -8.06276 
0.0088125 0.000984375 4.11858 6.98946e+21 4.64799e-05 6.02117 5.02799 2.61761 
0.0084375 0.00107813 3.89774 7.4578e+21 4.95944e-05 9.36361 -4.0235 0.700223 
0.0088125 0.00107813 4.067 7.6455e+21 5.08426e-05 10.4709 3.75466 3.07467 
0.0061875 0.00117188 3.93155 8.00087e+21 5.32058e-05 7.79693 -7.30864 3.85731 
0.0065625 0.00117188 3.71412 7.81668e+21 5.19809e-05 6.99465 1.07526 0.396651 
0.0061875 0.00126563 4.01289 7.72799e+21 5.13912e-05 10.02 0.598252 0.776863 
0.0065625 0.00126563 3.80735 7.47217e+21 4.96899e-05 13.1028 0.0857663 1.03115 
0.0069375 0.00117188 4.17863 7.51737e+21 4.99905e-05 15.6095 3.8958 -0.953031 
0.0073125 0.00117188 3.9984 7.644e+21 5.08326e-05 16.037 -1.4469 -8.7681 
0.0069375 0.00126563 3.9414 7.51481e+21 4.99735e-05 13.5524 3.8115 -0.232188 
0.0073125 0.00126563 3.95608 7.21635e+21 4.79887e-05 10.8849 -4.37201 -3.47351 
0.0061875 0.00135937 3.79282 8.06836e+21 5.36546e-05 12.8568 -6.20408 -1.30579 
0.0069375 0.00135937 4.08085 7.73094e+21 5.14107e-05 7.67715 -1.95955 1.99981 
0.0073125 0.00135937 4.00997 8.1279e+21 5.40506e-05 11.9039 1.5188 1.56114 
0.0069375 0.00145312 3.93814 7.47355e+21 4.96991e-05 10.9123 -2.30965 -2.34883 
0.0073125 0.00145312 3.82909 7.52925e+21 5.00695e-05 14.1734 -1.79892 -0.724307 
0.0076875 0.00117188 4.0863 7.51737e+21 4.99905e-05 12.739 0.964507 0.472169 
0.0080625 0.00117188 4.00362 7.67854e+21 5.10623e-05 16.3842 -6.08727 5.75869 
0.0076875 0.00126563 4.12438 7.70668e+21 5.12494e-05 10.6978 -4.09864 -3.61537 
0.0080625 0.00126563 4.04681 7.0991e+21 4.7209e-05 14.2093 4.1616 0.928512 
0.0084375 0.00117188 4.01949 7.37922e+21 4.90718e-05 9.18032 2.24674 -1.42784 
0.0088125 0.00117188 3.8535 7.33317e+21 4.87656e-05 6.38049 -3.96653 0.944374 
0.0084375 0.00126563 4.03464 7.26964e+21 4.83431e-05 9.21712 2.30521 -7.53975 
0.0088125 0.00126563 3.87154 7.35492e+21 4.89102e-05 17.1212 7.2309 1.12376 
0.0076875 0.00135937 4.1981 7.57215e+21 5.03548e-05 9.96435 2.05124 -4.50512 
0.0080625 0.00135937 4.10956 7.86987e+21 5.23347e-05 12.867 -3.55224 3.32634 
0.0080625 0.00145312 4.2627 7.69636e+21 5.11808e-05 11.1929 1.51974 -0.379982 
0.0084375 0.00135937 3.82186 8.05843e+21 5.35886e-05 20.0052 -1.49956 4.55531 
0.0088125 0.00135937 3.83145 7.74086e+21 5.14767e-05 16.5197 1.44426 2.32309 
0.0084375 0.00145312 3.81368 7.63137e+21 5.07486e-05 14.1659 -3.01314 -0.573486 
0.0091875 0.000796875 4.10852 6.75486e+21 4.49198e-05 14.851 0.732112 0.847825 
0.0095625 0.000796875 4.3315 7.16117e+21 4.76218e-05 6.33457 -0.552058 4.61764 
0.0091875 0.000890625 3.70258 7.0587e+21 4.69404e-05 12.476 3.2292 8.20733 
0.0095625 0.000890625 4.18584 7.11929e+21 4.73433e-05 13.3581 3.91571 -3.2279 
0.0091875 0.000984375 3.79616 6.98946e+21 4.64799e-05 12.2356 5.31771 -3.5131 
0.0095625 0.000984375 3.82349 6.86611e+21 4.56597e-05 21.802 2.18504 -0.431113 
0.0091875 0.00107813 4.30259 6.86969e+21 4.56834e-05 15.6645 -4.68538 -2.05024 
0.0095625 0.00107813 3.77361 6.79461e+21 4.51842e-05 7.03659 -7.9225 -2.53156 
0.0099375 0.000984375 3.92042 7.05798e+21 4.69356e-05 14.2063 3.73818 -0.577568 
0.0103125 0.000984375 4.19041 6.81129e+21 4.52951e-05 11.6607 0.485134 -5.6627 
0.0099375 0.00107813 3.81314 6.90723e+21 4.59331e-05 10.8782 1.58183 0.367291 
0.0103125 0.00107813 4.1903 7.05739e+21 4.69316e-05 9.23339 0.693117 3.05418 
0.0106875 0.000984375 4.10745 6.52349e+21 4.33812e-05 6.44844 4.115 0.500716 
0.0110625 0.000984375 3.82113 6.90723e+21 4.59331e-05 17.0726 4.06952 -2.49763 
0.0106875 0.00107813 4.1525 7.19503e+21 4.78469e-05 17.258 -2.61806 -2.16649 
0.0110625 0.00107813 4.0856 6.08136e+21 4.04411e-05 10.7486 -5.51112 -9.67546 
0.0114375 0.000984375 3.98749 6.75648e+21 4.49306e-05 16.2032 -0.321907 1.99598 
0.0118125 0.000984375 3.76246 6.05753e+21 4.02826e-05 12.945 5.10166 -2.43594 
0.0114375 0.00107813 3.84649 6.80712e+21 4.52674e-05 21.9124 4.24936 -0.212199 
0.0118125 0.00107813 4.00085 6.58189e+21 4.37696e-05 19.8161 0.234933 -0.603309 
0.0091875 0.00117188 3.84285 7.16049e+21 4.76173e-05 8.01049 1.7965 0.238584 
0.0095625 0.00117188 4.02847 7.04537e+21 4.68517e-05 13.4298 3.54591 5.91013 
0.0091875 0.00126563 3.96367 7.15239e+21 4.75634e-05 16.7595 4.50394 -3.65231 
0.0095625 0.00126563 4.01487 7.91986e+21 5.26671e-05 11.8414 2.28041 -3.20244 
0.0099375 0.00117188 3.87463 6.90723e+21 4.59331e-05 16.8427 -5.81347 5.83733 
0.0103125 0.00117188 4.15748 6.79211e+21 4.51675e-05 9.74983 0.731017 -0.884612 
0.0099375 0.00126563 4.08457 6.84327e+21 4.55078e-05 16.0657 1.1808 4.6217 
0.0103125 0.00126563 4.02147 7.08844e+21 4.71381e-05 13.0716 1.44385 1.92707 
0.0091875 0.00135937 3.90202 7.39351e+21 4.91669e-05 7.2166 1.74197 -4.95937 
0.0095625 0.00135937 3.93821 6.85761e+21 4.56031e-05 8.32869 -1.97388 4.46765 
0.0091875 0.00145312 4.04453 7.51068e+21 4.9946e-05 6.87728 0.841903 -0.0104694 
0.0095625 0.00145312 4.1402 7.13004e+21 4.74148e-05 11.1218 0.288933 1.76645 
0.0103125 0.00135937 3.70311 7.20495e+21 4.79129e-05 9.79758 0.244923 2.06974 
0.0099375 0.00145312 3.77301 7.29715e+21 4.85261e-05 6.991 0.947748 1.65205 
0.0103125 0.00145312 4.14881 7.06505e+21 4.69826e-05 2.28204 1.45519 -0.696703 
0.0106875 0.00117188 4.01392 6.74606e+21 4.48613e-05 18.2215 -0.973486 -1.23486 
0.0110625 0.00117188 3.90903 7.17201e+21 4.76938e-05 14.7312 2.95715 -5.2668 
0.0106875 0.00126563 4.08006 6.92855e+21 4.60748e-05 11.9609 -5.42142 1.95563 
0.0110625 0.00126563 3.94553 6.27833e+21 4.17509e-05 13.2919 -0.852076 -5.07923 
0.0114375 0.00117188 3.87475 7.11445e+21 4.73111e-05 15.7032 1.48095 5.0151 
0.0118125 0.00117188 3.94351 6.28558e+21 4.17991e-05 15.1378 2.0698 2.50976 
0.0114375 0.00126563 3.97419 6.61943e+21 4.40192e-05 15.3252 -3.50296 -4.93209 
0.0118125 0.00126563 4.00615 6.40624e+21 4.26015e-05 11.5646 -1.85284 6.1629 
0.0106875 0.00135937 3.78344 6.85761e+21 4.56031e-05 13.7037 0.853078 3.43883 
0.0110625 0.00135937 3.83584 6.48049e+21 4.30952e-05 14.072 2.34041 3.32299 
0.0106875 0.00145312 4.1067 6.43375e+21 4.27844e-05 14.6951 -1.88832 -4.12886 
0.0110625 0.00145312 3.91829 6.06239e+21 4.03149e-05 10.2876 -3.82532 0.319529 
0.0114375 0.00135937 3.89544 6.94693e+21 4.61971e-05 13.7142 -0.061584 -0.470088 
0.0118125 0.00135937 3.94104 6.49041e+21 4.31612e-05 10.6089 2.64138 1.88742 
0.0114375 0.00145312 4.0462 6.86081e+21 4.56244e-05 7.70761 1.98585 -0.568507 
0.0118125 0.00145312 4.24783 6.82367e+21 4.53774e-05 12.9161 -5.87934 6.81967 
0.0046875 0.00154688 0 0 0 0 0 0 
0.0050625 0.00154688 3.96671 8.72561e+21 5.80253e-05 0.0148514 -13.4118 1.11782 
0.0046875 0.00164063 0 0 0 0 0 0 
0.0050625 0.00164063 3.97645 8.37501e+21 5.56938e-05 2.09446 -15.0564 3.02796 
0.0054375 0.00154688 3.90444 8.55554e+21 5.68944e-05 8.89113 -5.8253 -3.95677 
0.0058125 0.00154688 4.10674 8.33751e+21 5.54445e-05 11.0089 -2.74029 -3.30549 
0.0058125 0.00164063 3.92192 7.91042e+21 5.26043e-05 10.6242 1.18463 2.48104 
0.0054375 0.00173438 3.81432 8.54069e+21 5.67956e-05 14.8569 -3.23762 0.844752 
0.0058125 0.00173438 4.04559 8.0351e+21 5.34334e-05 9.66428 -4.28378 -3.68831 
0.0058125 0.00182813 4.07676 8.05105e+21 5.35395e-05 11.5064 -0.294179 0.487441 
0.0054375 0.00201563 3.78464 8.58645e+21 5.70999e-05 11.7263 -2.0611 2.51022 
0.0058125 0.00201563 3.94316 8.23973e+21 5.47942e-05 9.85148 -3.45199 -6.23866 
0.0061875 0.00154688 3.89473 7.74447e+21 5.15007e-05 7.14263 -3.81019 2.35243 
0.0061875 0.00164063 4.06838 8.14888e+21 5.41901e-05 11.0297 -1.47408 1.08342 
0.0069375 0.00154688 3.84895 7.70086e+21 5.12107e-05 10.121 4.09683 2.7408 
0.0073125 0.00154688 3.99802 7.75319e+21 5.15587e-05 2.51717 2.81867 2.15382 
0.0061875 0.00173438 3.8939 8.07399e+21 5.3692e-05 8.84036 -3.2438 -2.37269 
0.0065625 0.00173438 4.06642 7.80952e+21 5.19333e-05 8.29056 -2.0974 -3.20261 
0.0069375 0.00173438 3.8582 8.02732e+21 5.33817e-05 6.65152 -2.21623 -4.92462 
0.0073125 0.00182813 3.98826 7.40904e+21 4.92701e-05 7.79118 1.77751 2.27733 
0.0076875 0.00154688 4.09432 7.70958e+21 5.12687e-05 6.14065 -3.12026 4.6055 
0.0080625 0.00154688 4.06962 7.33457e+21 4.87749e-05 8.0298 -4.8219 0.0767592 
0.0076875 0.00164063 4.19722 7.15392e+21 4.75735e-05 13.8406 -1.24515 8.4167 
0.0080625 0.00164063 4.04323 7.63084e+21 5.07451e-05 4.60195 2.1844 -3.30848 
0.0084375 0.00154688 3.98137 7.41306e+21 4.92969e-05 13.6166 1.095 0.872433 
0.0088125 0.00154688 4.1332 7.24736e+21 4.81949e-05 7.65425 -4.71996 -1.52978 
0.0084375 0.00164063 4.02392 7.6144e+21 5.06357e-05 6.08655 -1.41827 -0.595664 
0.0088125 0.00164063 3.86969 7.46638e+21 4.96515e-05 9.6602 -0.0251475 -0.291998 
0.0076875 0.00173438 3.91444 7.29615e+21 4.85194e-05 6.44432 -2.68754 -1.19456 
0.0080625 0.00173438 3.98971 7.3506e+21 4.88815e-05 9.39268 0.245679 -0.825991 
0.0076875 0.00182813 4.14795 7.41642e+21 4.93192e-05 9.53373 -6.59005 0.729635 
0.0084375 0.00173438 4.06751 7.28837e+21 4.84677e-05 9.85314 1.74127 -4.07752 
0.0088125 0.00173438 3.99641 7.16392e+21 4.764e-05 4.70689 0.332305 -1.65156 
0.0088125 0.00182813 3.9644 7.0622e+21 4.69636e-05 5.87697 0.53249 -5.81013 
0.0061875 0.00201563 3.8104 7.13838e+21 4.74702e-05 12.357 -1.41363 1.48347 
0.0065625 0.00201563 4.02666 7.4647e+21 4.96403e-05 0.0803168 -1.63456 -0.210096 
0.0069375 0.00201563 3.66962 7.9134e+21 5.26241e-05 2.2249 -2.97633 -7.19598 
0.0073125 0.00201563 3.98543 7.42391e+21 4.9369e-05 -0.0205819 8.11839 -5.46524 
0.0080625 0.00192187 4.03151 7.0757e+21 4.70534e-05 5.41566 -7.77493 -1.67696 
0.0076875 0.00201563 3.99865 7.77063e+21 5.16747e-05 2.30428 0.281293 2.34985 
0.0080625 0.00201563 3.88044 8.03577e+21 5.34379e-05 -1.79157 4.76126 -9.49417 
0.0084375 0.00201563 4.20703 8.05617e+21 5.35735e-05 1.67026 -4.17726 -2.61154 
0.0088125 0.00201563 4.30887 6.89363e+21 4.58426e-05 1.53883 -4.52066 -1.95188 
0.0091875 0.00154688 3.98128 6.76769e+21 4.50051e-05 14.0148 -0.306506 3.76055 
0.0095625 0.00164063 3.9326 7.22792e+21 4.80657e-05 9.0176 0.380063 -1.70477 
0.0103125 0.00154688 4.15926 6.38395e+21 4.24533e-05 9.48888 -0.640258 0.345788 
0.0099375 0.00164063 3.80856 6.79211e+21 4.51675e-05 7.68291 1.04267 1.2891 
0.0103125 0.00164063 3.86566 6.66054e+21 4.42926e-05 9.21469 -2.30876 -4.44112 
0.0095625 0.00173438 4.07605 7.14058e+21 4.74849e-05 7.44346 3.37026 -1.54177 
0.0091875 0.00182813 4.08398 7.18765e+21 4.77979e-05 5.87355 0.866282 2.96804 
0.0103125 0.00173438 4.04391 6.82944e+21 4.54158e-05 9.44827 1.01818 3.01211 
0.0099375 0.00182813 3.84874 7.14337e+21 4.75034e-05 12.4394 2.51207 3.74446 
0.0103125 0.00182813 3.9858 7.20241e+21 4.7896e-05 2.93546 1.69938 -1.19499 
0.0106875 0.00154688 4.01255 6.977e+21 4.6397e-05 11.6616 2.25343 2.45823 
0.0110625 0.00154688 3.9948 6.75897e+21 4.49471e-05 10.246 -0.93415 -2.42084 
0.0106875 0.00164063 4.03709 6.77566e+21 4.50582e-05 10.2295 -0.812494 1.17034 
0.0110625 0.00164063 3.91214 6.72632e+21 4.47301e-05 10.9909 6.83811 -3.57867 
0.0114375 0.00154688 4.03481 6.84618e+21 4.55271e-05 8.94926 1.02923 2.83768 
0.0118125 0.00154688 3.71805 6.45372e+21 4.29173e-05 11.0803 -3.59034 1.25395 
0.0114375 0.00164063 3.72596 6.72632e+21 4.47301e-05 11.7762 4.03155 5.24254 
0.0118125 0.00164063 3.99676 6.47964e+21 4.30896e-05 8.496 2.13206 1.97997 
0.0106875 0.00173438 3.90371 6.79055e+21 4.51572e-05 10.0332 4.9403 1.0189 
0.0110625 0.00173438 3.9298 6.75166e+21 4.48985e-05 3.58787 -2.25081 -3.14688 
0.0106875 0.00182813 3.91738 6.68584e+21 4.44609e-05 5.71866 4.04696 3.22739 
0.0114375 0.00173438 4.10289 6.71277e+21 4.46399e-05 13.824 -4.14465 -1.03735 
0.0118125 0.00173438 4.00138 6.29273e+21 4.18467e-05 7.53796 -3.72706 -1.31013 
0.0118125 0.00182813 3.95045 6.78178e+21 4.50988e-05 3.88088 0.0905439 2.0185 
0.0091875 0.00192187 4.08229 6.86511e+21 4.5653e-05 6.66246 -0.0720172 0.464134 
0.0091875 0.00201563 3.73398 6.91403e+21 4.59783e-05 11.1511 -4.58531 -0.501444 
0.0095625 0.00201563 3.8421 7.11798e+21 4.73346e-05 10.156 5.59349 0.486979 
0.0099375 0.00201563 3.88712 6.68968e+21 4.44864e-05 4.51192 -2.9762 3.84773 
0.0103125 0.00201563 3.6901 7.34233e+21 4.88265e-05 6.21372 6.81704 3.26199 
0.0110625 0.00192187 4.09869 6.81597e+21 4.53262e-05 2.34737 7.20801 -7.77059 
0.0106875 0.00201563 3.86573 6.77126e+21 4.50289e-05 1.05923 12.1265 -5.45993 
0.0110625 0.00201563 3.78633 6.48572e+21 4.31301e-05 6.8391 1.45113 -1.69492 
0.0114375 0.00201563 3.91713 6.34296e+21 4.21807e-05 2.6881 3.49975 4.71907 
0.0118125 0.00201563 3.64371 6.71007e+21 4.4622e-05 4.53433 8.80952 -0.955967 
0.0121875 0.00154688 3.65463 6.39267e+21 4.25113e-05 9.14058 -0.51821 -6.0991 
0.0125625 0.00154688 4.10172 6.1572e+21 4.09454e-05 6.11929 -1.35739 -4.1681 
0.0121875 0.00164063 3.84959 6.28229e+21 4.17772e-05 7.38315 6.7813 0.171125 
0.0125625 0.00164063 3.91988 6.39741e+21 4.25428e-05 8.23594 -1.00367 3.13509 
0.0129375 0.00154688 3.78095 5.92173e+21 3.93795e-05 11.085 -3.84695 -4.52632 
0.0133125 0.00154688 4.09192 6.06999e+21 4.03654e-05 10.6483 4.18667 -0.756792 
0.0129375 0.00164063 3.98403 6.11783e+21 4.06836e-05 13.6857 -1.80541 -3.04016 
0.0133125 0.00164063 4.15743 6.15895e+21 4.0957e-05 10.1754 3.30952 5.95101 
0.0121875 0.00173438 3.76203 6.44052e+21 4.28295e-05 9.24112 1.29563 -3.69463 
0.0125625 0.00173438 3.94376 6.40941e+21 4.26226e-05 7.08505 -4.28541 -5.59265 
0.0133125 0.00173438 4.0379 6.26162e+21 4.16398e-05 7.96617 -2.79201 0.540843 
0.0129375 0.00182813 3.90666 6.0881e+21 4.04859e-05 5.31029 5.79805 2.94925 
0.0133125 0.00182813 3.84708 6.15452e+21 4.09275e-05 7.33075 1.09172 0.972868 
0.0136875 0.00154688 4.2029 6.55838e+21 4.36132e-05 15.2015 -0.607254 -2.84814 
0.0140625 0.00154688 3.97226 6.00022e+21 3.99015e-05 9.03157 -0.753334 -1.7692 
0.0136875 0.00164063 4.14279 6.15072e+21 4.09023e-05 0.847002 -0.931983 0.89679 
0.0140625 0.00164063 3.90541 5.92048e+21 3.93712e-05 11.5054 -5.74403 -1.15455 
0.0144375 0.00154688 4.26861 6.01766e+21 4.00174e-05 11.9319 3.31453 -5.14705 
0.0148125 0.00154688 4.13148 5.76474e+21 3.83356e-05 8.99554 -5.63602 0.55096 
0.0144375 0.00164063 4.27094 6.10139e+21 4.05742e-05 8.05883 4.6508 -1.66825 
0.0148125 0.00164063 4.02194 5.94515e+21 3.95352e-05 4.71164 -2.74123 -4.31383 
0.0136875 0.00173438 3.91716 5.82603e+21 3.87431e-05 8.2021 -0.406468 -0.151015 
0.0140625 0.00173438 4.03811 5.82603e+21 3.87431e-05 6.41676 1.79154 -2.53504 
0.0136875 0.00182813 3.89479 5.97003e+21 3.97007e-05 0.476626 -5.23006 -2.48251 
0.0140625 0.00182813 4.22667 5.73389e+21 3.81303e-05 2.12414 4.18181 3.3828 
0.0144375 0.00173438 4.02991 5.63935e+21 3.75017e-05 4.37178 0.0985752 4.7243 
0.0148125 0.00173438 4.00967 6.02049e+21 4.00363e-05 5.01822 -4.3221 -3.95224 
0.0144375 0.00182813 3.70517 5.54202e+21 3.68544e-05 9.02636 0.595382 1.52885 
0.0148125 0.00182813 3.89285 5.82982e+21 3.87683e-05 7.41036 -1.1022 3.93984 
0.0121875 0.00192187 4.02377 6.25441e+21 4.15918e-05 2.87419 -5.07899 3.78574 
0.0125625 0.00192187 3.99186 6.50711e+21 4.32723e-05 10.4728 2.55156 -3.14208 
0.0121875 0.00201563 3.83215 5.87386e+21 3.90612e-05 -0.0418999 -1.16808 -3.91079 
0.0125625 0.00201563 4.30336 6.34296e+21 4.21807e-05 10.9763 -2.83941 2.88705 
0.0129375 0.00192187 3.93357 5.98767e+21 3.9818e-05 0.0990661 4.73818 7.28357 
0.0133125 0.00192187 3.8607 5.68583e+21 3.78108e-05 9.56106 -2.35775 -0.743275 
0.0129375 0.00201563 4.04738 6.75086e+21 4.48932e-05 6.87813 -2.10528 2.25304 
0.0133125 0.00201563 4.12131 5.7311e+21 3.81118e-05 -1.84137 -9.18087 4.68928 
0.0136875 0.00192187 4.09459 6.107e+21 4.06116e-05 3.20033 -1.55863 -0.180753 
0.0140625 0.00192187 3.89245 5.79112e+21 3.8511e-05 7.6468 -3.21262 -0.615864 
0.0136875 0.00201563 4.33519 5.83307e+21 3.87899e-05 -1.07607 -5.91528 -4.87384 
0.0140625 0.00201563 4.05614 5.85347e+21 3.89256e-05 -4.18167 -5.07621 -2.71458 
0.0144375 0.00192187 3.98463 5.87536e+21 3.90711e-05 5.08117 3.683 2.00235 
0.0148125 0.00192187 3.95041 5.81218e+21 3.8651e-05 6.90771 -4.85375 6.72444 
0.0144375 0.00201563 4.12093 5.64951e+21 3.75693e-05 -0.826801 1.32561 4.46548 
0.0148125 0.00201563 3.9301 5.20082e+21 3.45854e-05 0.266555 1.30821 6.75496 
0.0151875 0.00154688 4.06065 6.06127e+21 4.03074e-05 11.6764 3.68099 1.96685 
0.0155625 0.00154688 4.17284 5.56416e+21 3.70016e-05 10.8668 -1.1604 4.19963 
0.0151875 0.00164063 3.94072 5.55867e+21 3.69652e-05 7.63208 1.46689 6.32013 
0.0155625 0.00164063 4.20705 5.63268e+21 3.74573e-05 5.34387 1.35572 1.81187 
0.0159375 0.00154688 3.93871 5.32868e+21 3.54357e-05 10.5055 7.41481 7.98513 
0.0159375 0.00164063 4.03162 5.67379e+21 3.77307e-05 11.599 -7.94782 5.26186 
0.0163125 0.00164063 3.76667 5.57512e+21 3.70745e-05 7.11195 5.20027 -2.55309 
0.0151875 0.00173438 3.96408 5.91159e+21 3.93121e-05 12.8251 -0.265891 -0.336379 
0.0155625 0.00173438 3.76271 5.75602e+21 3.82776e-05 11.3013 4.57456 -5.8314 
0.0151875 0.00182813 3.932 5.72651e+21 3.80813e-05 5.12421 -1.35274 7.48404 
0.0155625 0.00182813 4.06958 5.35015e+21 3.55785e-05 1.92135 -2.0866 3.41694 
0.0159375 0.00173438 4.13352 5.46044e+21 3.6312e-05 5.91422 0.940301 -0.208594 
0.0163125 0.00173438 3.87663 5.11819e+21 3.4036e-05 11.6678 0.617557 7.74264 
0.0159375 0.00182813 3.95557 5.51988e+21 3.67072e-05 8.43192 6.35901 -2.58556 
0.0163125 0.00182813 4.0028 5.46084e+21 3.63146e-05 4.21486 -0.627155 5.24474 
0.0166875 0.00154688 3.83874 5.30252e+21 3.52617e-05 14.9891 2.30204 -1.85296 
0.0170625 0.00154688 4.01343 5.49439e+21 3.65377e-05 10.7869 -1.75194 6.55933 
0.0166875 0.00164063 3.90508 5.29554e+21 3.52154e-05 14.4596 6.49449 -7.23062 
0.0170625 0.00164063 3.92103 5.26265e+21 3.49966e-05 11.0239 0.340537 -3.4376 
0.0174375 0.00154688 4.04655 4.7182e+21 3.1376e-05 23.7191 6.77218 0.997047 
0.0178125 0.00154688 4.03813 4.84901e+21 3.22459e-05 17.8427 -5.94846 -1.42259 
0.0174375 0.00164063 3.94811 5.13931e+21 3.41764e-05 11.7285 -9.05898 -4.36186 
0.0178125 0.00164063 3.76295 4.9584e+21 3.29734e-05 16.349 0.58536 3.15164 
0.0166875 0.00173438 4.07772 5.27376e+21 3.50705e-05 12.7359 -3.32826 -5.79137 
0.0170625 0.00173438 3.93142 5.19598e+21 3.45533e-05 14.3288 8.26091 1.88693 
0.0166875 0.00182813 3.97259 5.23946e+21 3.48424e-05 13.5425 -0.0546273 1.38654 
0.0170625 0.00182813 3.86317 5.09925e+21 3.391e-05 9.41563 1.02995 -4.28653 
0.0174375 0.00173438 3.982 4.95485e+21 3.29497e-05 8.58101 0.370174 -6.8166 
0.0178125 0.00173438 4.02774 4.94707e+21 3.2898e-05 13.5001 -7.37195 -3.5616 
0.0174375 0.00182813 3.93124 5.09925e+21 3.391e-05 5.04622 -8.47864 2.69805 
0.0178125 0.00182813 3.96212 4.88524e+21 3.24868e-05 18.2157 7.66883 0.223391 
0.0151875 0.00192187 4.03239 5.39803e+21 3.58969e-05 5.37268 2.30296 -6.93551 
0.0155625 0.00192187 3.95985 5.48928e+21 3.65037e-05 6.91063 1.00533 3.3752 
0.0151875 0.00201563 4.14568 5.79228e+21 3.85187e-05 6.09935 7.13372 -4.7525 
0.0155625 0.00201563 4.22651 4.65014e+21 3.09234e-05 14.4081 -3.307 -1.68571 
0.0166875 0.00192187 3.93073 5.35591e+21 3.56168e-05 4.31628 -0.796088 0.481045 
0.0170625 0.00192187 3.91057 5.37697e+21 3.57568e-05 7.90072 7.55024 -1.95107 
0.0166875 0.00201563 3.75905 5.7311e+21 3.81118e-05 6.98636 1.75355 -3.95744 
0.0170625 0.00201563 3.87638 5.03765e+21 3.35004e-05 1.19874 -5.3841 -1.79929 
0.0174375 0.00192187 4.05453 5.10321e+21 3.39363e-05 7.41055 -5.47654 -0.43351 
0.0178125 0.00192187 3.79785 5.14532e+21 3.42164e-05 8.22832 2.44723 0.884493 
0.0174375 0.00201563 4.32237 4.93568e+21 3.28223e-05 9.14514 2.80875 6.61148 
0.0178125 0.00201563 3.80864 4.16065e+21 2.76683e-05 7.40604 -4.09603 -2.60935 
0.004875 9.375e-05 4.04828 7.98648e+21 5.31101e-05 -9.02097 6.89976 -12.0291 
0.005625 9.375e-05 3.86185 7.48283e+21 4.97608e-05 1.22216 7.81116 7.02093 
0.004875 0.00028125 4.06005 6.87125e+21 4.56938e-05 -7.39692 11.0148 9.19102 
0.005625 0.00028125 3.99586 7.69868e+21 5.11962e-05 6.79084 -1.11883 1.90318 
0.0076875 0.000609375 3.98025 7.70422e+21 5.1233e-05 9.30048 -0.0629485 2.30594 
0.0080625 0.000609375 4.22011 7.6378e+21 5.07914e-05 10.8156 0.850258 3.0975 
0.0076875 0.000703125 3.77594 6.86885e+21 4.56779e-05 6.28836 -2.98727 -0.35066 
0.0080625 0.000703125 3.80329 8.07762e+21 5.37162e-05 14.9056 -1.76914 2.59407 
0.0061875 0.000984375 3.90149 7.61988e+21 5.06722e-05 7.94088 -7.80539 -5.97334 
0.0065625 0.000984375 3.76479 7.35949e+21 4.89406e-05 14.8383 -1.1237 -1.93144 
0.0061875 0.00107813 3.99634 7.78314e+21 5.17579e-05 17.2728 -5.23896 1.10158 
0.0065625 0.00107813 3.83417 7.88325e+21 5.24236e-05 14.6727 -0.730429 2.5337 
0.0076875 0.000796875 4.01297 7.87221e+21 5.23502e-05 17.5554 -4.79186 4.00023 
0.0080625 0.000796875 4.06618 7.41511e+21 4.93105e-05 18.4529 -6.96513 5.32905 
0.0076875 0.000890625 3.90631 8.37653e+21 5.57039e-05 7.3808 -4.21706 -0.787391 
0.0080625 0.000890625 4.20376 7.89181e+21 5.24805e-05 10.3275 -6.56236 5.02263 
0.0076875 0.000984375 3.96 7.03057e+21 4.67533e-05 7.59411 0.584582 1.63558 
0.0080625 0.000984375 3.9442 7.42801e+21 4.93963e-05 12.5964 -2.9452 -1.29174 
0.0076875 0.00107813 4.05619 7.50786e+21 4.99272e-05 10.0897 -1.99282 -0.778422 
0.0080625 0.00107813 3.78683 7.40775e+21 4.92616e-05 10.9924 -2.54049 0.154367 
0.0106875 0.000796875 3.88274 6.45013e+21 4.28934e-05 13.735 -0.188166 0.107794 
0.0110625 0.000796875 3.71511 6.61943e+21 4.40192e-05 17.3408 0.0649412 -0.151004 
0.0106875 0.000890625 4.07892 6.90723e+21 4.59331e-05 11.1525 -0.348233 -2.23035 
0.0110625 0.000890625 3.88138 6.58913e+21 4.38177e-05 14.4905 -1.1538 0.296963 
0.0159375 0.00192187 4.03121 5.59457e+21 3.72039e-05 5.453 2.68428 -3.69706 
0.0163125 0.00192187 4.015 5.06109e+21 3.36562e-05 11.6168 -4.22068 -3.60381 
0.0159375 0.00201563 4.07661 5.79228e+21 3.85187e-05 5.83002 -3.72356 -2.55087 
0.0163125 0.00201563 3.66165 5.2824e+21 3.51279e-05 9.6656 7.55519 -13.313 
0.00534375 0.00124219 3.76946 7.99327e+21 5.31552e-05 12.6297 -12.6739 2.39528 
0.00553125 0.00124219 3.69749 8.29736e+21 5.51775e-05 3.06514 -13.4561 0.0334603 
0.00534375 0.00128906 4.48099 8.62357e+21 5.73467e-05 -1.06938 -9.42812 -1.68856 
0.00553125 0.00128906 4.25829 7.74447e+21 5.15007e-05 5.27027 -11.8417 5.19626 
0.00534375 0.00180469 4.45973 8.4023e+21 5.58753e-05 14.9987 2.02255 9.27463 
0.00553125 0.00180469 4.13771 8.3126e+21 5.52788e-05 13.0886 -7.3784 7.92641 
0.00534375 0.00185156 3.92774 8.94734e+21 5.94998e-05 16.4417 -3.38163 -4.95529 
0.00553125 0.00185156 3.33078 8.74333e+21 5.81431e-05 6.43851 -4.60599 1.09687 
0.00646875 0.00161719 4.02365 7.24091e+21 4.81521e-05 4.49184 6.59954 -1.15835 
0.00665625 0.00161719 3.91122 6.97396e+21 4.63769e-05 15.8283 -0.832495 2.85678 
0.00646875 0.00166406 4.29196 8.04222e+21 5.34808e-05 3.50672 2.79154 2.52621 
0.00665625 0.00166406 3.49698 7.39365e+21 4.91678e-05 9.51425 2.92171 7.4082 
0.0054375 0.000609375 3.82752 7.72635e+21 5.13803e-05 2.74154 -0.529422 -1.72064 
0.0058125 0.000609375 3.95282 8.85542e+21 5.88885e-05 4.66811 2.00223 -2.80497 
0.0054375 0.000703125 3.90489 7.5212e+21 5.0016e-05 5.03065 -1.87906 0.0369532 
0.0058125 0.000703125 3.96324 7.94331e+21 5.2823e-05 7.84126 3.79953 -3.47901 
0.0084375 0.000421875 4.40406 7.73865e+21 5.1462e-05 15.431 -5.28937 5.33843 
0.0088125 0.000421875 4.14449 7.25899e+21 4.82723e-05 18.3684 6.08259 -5.01438 
0.0084375 0.000515625 3.98905 6.69792e+21 4.45412e-05 19.9714 -8.4691 5.27153 
0.0088125 0.000515625 4.16561 7.06421e+21 4.6977e-05 13.7169 1.1707 7.86876 
0.0106875 0.000609375 3.70518 6.26521e+21 4.16636e-05 9.08535 -8.81118 -0.504016 
0.0110625 0.000609375 4.09238 6.90723e+21 4.59331e-05 13.0811 12.4117 -0.297101 
0.0106875 0.000703125 4.04611 7.06072e+21 4.69538e-05 19.302 -7.24622 8.05358 