ITEM: TIMESTEP
500000
ITEM: NUMBER OF CELLS
10792
ITEM: BOX BOUNDS oo ao pp
0 0.12
0 0.03
-0.1 0.1
ITEM: CELLS xc yc f_out[1] f_out[2] f_out[3] f_out[4] f_out[5] f_out[6] 
0.003 0.00675 0 0 0 0 0 0 
0.003 0.01275 0 0 0 0 0 0 
0.009 0.00675 0 0 0 0 0 0 
0.009 0.01275 0 0 0 0 0 0 
0.003 0.00825 0 0 0 0 0 0 
0.003 0.01425 0 0 0 0 0 0 
0.009 0.00825 0 0 0 0 0 0 
0.009 0.01425 0 0 0 0 0 0 
0.015 0.00825 0 0 0 0 0 0 
0.015 0.01425 0 0 0 0 0 0 
0.003 0.00375 0 0 0 0 0 0 
0.003 0.00975 0 0 0 0 0 0 
0.009 0.00375 0 0 0 0 0 0 
0.009 0.00975 0 0 0 0 0 0 
0.003 0.00525 0 0 0 0 0 0 
0.003 0.01125 0 0 0 0 0 0 
0.009 0.00525 0 0 0 0 0 0 
0.009 0.01125 0 0 0 0 0 0 
0.015 0.00525 0 0 0 0 0 0 
0.015 0.01125 0 0 0 0 0 0 
0.0015 0.000375 0 0 0 0 0 0 
0.0015 0.001125 0 0 0 0 0 0 
0.0015 0.001875 0 0 0 0 0 0 
0.0015 0.002625 0 0 0 0 0 0 
0.0045 0.002625 0 0 0 0 0 0 
0.0075 0.002625 0 0 0 0 0 0 
0.0105 0.002625 0 0 0 0 0 0 
0.0135 0.002625 0 0 0 0 0 0 
0.0165 0.002625 0 0 0 0 0 0 
0.00375 0.0001875 0 0 0 0 0 0 
0.00525 0.0001875 4.02255 2.01455e+22 0.000133967 14.1605 -5.46451 0.820787 
0.00375 0.0005625 0 0 0 0 0 0 
0.00375 0.0009375 0 0 0 0 0 0 
0.00375 0.0013125 0 0 0 0 0 0 
0.00375 0.0016875 0 0 0 0 0 0 
0.00375 0.0020625 0 0 0 0 0 0 
0.004875 0.00046875 4.19453 1.93397e+22 0.000128609 10.8973 1.62315 -1.41804 
0.005625 0.00046875 3.8518 1.93638e+22 0.000128769 13.2751 -8.20115 -2.12027 
0.004875 0.00065625 4.01968 1.98674e+22 0.000132118 12.9141 0.27261 -1.17963 
0.004875 0.00084375 4.12481 1.9396e+22 0.000128983 13.0783 -2.14634 -0.11085 
0.004875 0.00103125 4.09475 1.87997e+22 0.000125018 15.2306 -3.66584 -2.06691 
0.004875 0.00121875 3.92063 1.92505e+22 0.000128016 18.68 -3.53055 0.82841 
0.004875 0.00140625 4.03543 1.94604e+22 0.000129412 6.12086 -5.95687 -7.33825 
0.007875 9.375e-05 3.90219 1.91948e+22 0.000127645 7.63587 -15.8423 7.37393 
0.008625 9.375e-05 3.89178 1.89533e+22 0.00012604 17.2137 5.98924 -7.61724 
0.007875 0.00028125 3.8699 1.81083e+22 0.00012042 24.1996 -3.76182 3.4765 
0.008625 0.00028125 3.90028 1.8229e+22 0.000121223 19.0785 6.84228 3.039 
0.006375 0.00046875 4.06717 1.90982e+22 0.000127003 17.8876 -2.96743 -1.8474 
0.007125 0.00046875 3.79425 1.9895e+22 0.000132302 18.6048 -0.187269 0.702389 
0.007875 0.00065625 3.99215 1.75564e+22 0.00011675 17.0748 -0.675705 -2.08093 
0.009375 0.00046875 4.29009 1.65389e+22 0.000109984 17.0938 2.73417 4.46756 
0.010125 0.00046875 4.09686 1.62975e+22 0.000108378 14.6226 -1.43012 -3.50988 
0.010125 0.00065625 4.04524 1.72115e+22 0.000114457 15.316 8.15344 3.12816 
0.010875 0.00046875 4.27297 1.64906e+22 0.000109663 19.0075 6.29996 4.4567 
0.011625 0.00046875 3.8979 1.57421e+22 0.000104685 21.8244 0.029673 -1.70494 
0.010875 0.00065625 4.08223 1.67631e+22 0.000111475 19.4995 -1.94785 2.42686 
0.004875 0.00159375 4.02411 2.14956e+22 0.000142946 8.23659 -6.70036 -5.42766 
0.004875 0.00196875 4.04915 2.03193e+22 0.000135123 5.2962 -0.912736 -0.858776 
0.004875 0.00215625 0 0 0 0 0 0 
0.005625 0.00215625 0 0 0 0 0 0 
0.006375 0.00215625 0 0 0 0 0 0 
0.007125 0.00215625 0 0 0 0 0 0 
0.007875 0.00215625 0 0 0 0 0 0 
0.008625 0.00215625 0 0 0 0 0 0 
0.009375 0.00215625 0 0 0 0 0 0 
0.010125 0.00215625 0 0 0 0 0 0 
0.010875 0.00215625 0 0 0 0 0 0 
0.011625 0.00215625 0 0 0 0 0 0 
0.012375 0.00215625 0 0 0 0 0 0 
0.013125 0.00215625 0 0 0 0 0 0 
0.013875 0.00215625 0 0 0 0 0 0 
0.014625 0.00215625 0 0 0 0 0 0 
0.015375 0.00215625 0 0 0 0 0 0 
0.016125 0.00215625 0 0 0 0 0 0 
0.016875 0.00215625 0 0 0 0 0 0 
0.017625 0.00215625 0 0 0 0 0 0 
0.0054375 0.00117188 3.97889 1.85815e+22 0.000123567 9.70166 -4.0095 0.866958 
0.0058125 0.00117188 3.87121 1.91996e+22 0.000127677 15.8346 -8.63343 -0.341065 
0.0054375 0.00126563 3.95826 1.99236e+22 0.000132492 9.67097 4.58156 2.44927 
0.0058125 0.00126563 3.94151 1.88863e+22 0.000125594 17.7142 -3.44475 -3.46391 
0.0054375 0.00135937 3.85787 2.02813e+22 0.000134871 17.6557 1.39265 2.49121 
0.0058125 0.00135937 3.8401 1.85496e+22 0.000123355 10.9624 -1.10425 2.87557 
0.0054375 0.00145312 3.99877 1.82563e+22 0.000121404 8.74072 3.17502 -4.98192 
0.0058125 0.00145312 4.03737 1.8412e+22 0.00012244 13.3695 -12.0161 6.95567 
0.0114375 0.000609375 4.42472 1.7904e+22 0.000119062 18.8532 11.8674 -6.70135 
0.0118125 0.000609375 3.8146 1.5081e+22 0.000100288 26.3095 4.4561 2.81797 
0.0114375 0.000703125 3.7515 1.51949e+22 0.000101046 21.1175 2.85256 6.18539 
0.0118125 0.000703125 3.97509 1.44223e+22 9.5908e-05 17.3133 -5.19059 3.92315 
0.0061875 0.000796875 3.80154 1.81793e+22 0.000120892 5.27246 -2.1275 -3.04284 
0.0065625 0.000796875 3.71099 1.72135e+22 0.00011447 2.83893 -3.48512 3.62313 
0.0061875 0.000890625 3.85123 1.9773e+22 0.00013149 18.3103 -3.08996 -2.81192 
0.0065625 0.000890625 4.24961 1.90614e+22 0.000126758 7.99649 2.48444 -7.48856 
0.0061875 0.000984375 4.07808 2.01893e+22 0.000134259 12.4169 -4.2769 -8.64255 
0.0065625 0.000984375 3.99842 1.84877e+22 0.000122943 13.4527 6.0015 7.84781 
0.0061875 0.00107813 3.98724 1.90216e+22 0.000126494 15.0074 -1.62493 3.98799 
0.0065625 0.00107813 3.71872 1.7048e+22 0.000113369 21.7327 -2.26721 7.69564 
0.0084375 0.000984375 3.96316 1.84877e+22 0.000122943 17.909 3.63725 6.07049 
0.0088125 0.000984375 3.99548 1.7338e+22 0.000115298 23.4645 4.52711 -3.56678 
0.0084375 0.00107813 4.10833 1.81398e+22 0.00012063 14.194 2.67577 1.92461 
0.0088125 0.00107813 4.00102 1.79718e+22 0.000119513 10.7777 8.71259 5.02865 
0.0061875 0.00117188 3.84562 1.80021e+22 0.000119714 15.7866 -3.87786 -0.889965 
0.0065625 0.00117188 4.04523 1.99722e+22 0.000132815 11.8927 -6.61498 -0.105103 
0.0061875 0.00126563 4.23571 1.92082e+22 0.000127735 12.6978 -4.84329 -7.0115 
0.0065625 0.00126563 4.11705 1.89578e+22 0.00012607 11.0459 7.39979 0.239336 
0.0061875 0.00135937 3.93153 1.86495e+22 0.000124019 16.484 -9.12382 2.18297 
0.0065625 0.00135937 3.90123 1.90824e+22 0.000126898 7.26346 -2.41759 -2.26321 
0.0061875 0.00145312 3.90894 1.8194e+22 0.00012099 11.6 -5.0161 -1.70177 
0.0065625 0.00145312 4.11554 1.85367e+22 0.000123269 13.9 -3.88178 -1.75972 
0.0076875 0.00117188 3.86495 1.98177e+22 0.000131788 12.6259 2.06825 5.12474 
0.0080625 0.00117188 4.35578 1.8118e+22 0.000120484 14.7108 -5.53676 0.280819 
0.0076875 0.00126563 3.91791 1.82424e+22 0.000121312 11.9179 3.30943 -5.74562 
0.0080625 0.00126563 4.03808 1.93513e+22 0.000128686 12.1815 -2.24682 -2.60717 
0.0076875 0.00135937 4.05063 1.76837e+22 0.000117597 17.2501 -2.15953 1.18622 
0.0080625 0.00135937 4.16769 1.71841e+22 0.000114275 15.1442 -3.16994 -2.46156 
0.0076875 0.00145312 4.07965 1.77578e+22 0.000118089 11.8996 -4.87143 -1.49247 
0.0080625 0.00145312 3.98729 1.90974e+22 0.000126998 14.7553 2.02187 -2.57542 
0.0106875 0.000984375 4.04374 1.7292e+22 0.000114992 9.60904 3.75898 -3.1553 
0.0110625 0.000984375 3.96135 1.63262e+22 0.000108569 17.9645 0.197006 0.893951 
0.0106875 0.00107813 4.54472 1.75099e+22 0.000116441 11.3388 -2.72233 1.39989 
0.0110625 0.00107813 3.64036 1.48226e+22 9.857e-05 9.76938 -3.07691 5.96719 
0.0091875 0.00117188 4.07791 1.64955e+22 0.000109695 15.4227 4.89417 -3.64312 
0.0095625 0.00117188 3.70965 1.73453e+22 0.000115346 13.6932 0.458424 -3.56256 
0.0091875 0.00126563 4.08048 1.72409e+22 0.000114652 8.87336 4.7469 -6.76057 
0.0095625 0.00126563 4.01309 1.82067e+22 0.000121074 10.6918 5.90668 0.386159 
0.0099375 0.00117188 4.04836 1.86202e+22 0.000123824 11.9817 -1.44544 0.0492044 
0.0103125 0.00117188 3.70329 1.71135e+22 0.000113805 12.2458 3.36963 -0.422889 
0.0099375 0.00126563 3.76328 1.7384e+22 0.000115603 12.5191 6.78751 6.57635 
0.0103125 0.00126563 4.23292 1.72051e+22 0.000114414 21.3356 -4.72907 9.08638 
0.0091875 0.00135937 3.92234 1.73507e+22 0.000115382 20.1376 1.43066 2.35203 
0.0095625 0.00135937 4.12557 1.66846e+22 0.000110953 13.8302 5.11282 2.80302 
0.0091875 0.00145312 4.08176 1.63247e+22 0.000108559 11.836 10.7609 -6.22098 
0.0095625 0.00145312 3.94755 1.8194e+22 0.00012099 6.70465 -0.551893 -2.60848 
0.0099375 0.00135937 4.09642 1.69177e+22 0.000112503 12.2276 0.600439 -7.10451 
0.0103125 0.00135937 4.13778 1.6951e+22 0.000112724 7.06143 -1.99611 -0.882127 
0.0099375 0.00145312 3.98388 1.79759e+22 0.00011954 14.8197 -6.71673 -1.36612 
0.0103125 0.00145312 3.86482 1.63559e+22 0.000108767 8.91762 -7.40679 -3.56753 
0.0106875 0.00117188 4.34668 1.65341e+22 0.000109952 21.2632 -3.33897 4.2965 
0.0110625 0.00117188 3.93895 1.73453e+22 0.000115346 9.11127 -3.30896 5.43501 
0.0106875 0.00126563 3.95319 1.6919e+22 0.000112511 9.93876 -4.26665 -2.9224 
0.0110625 0.00126563 3.99335 1.63466e+22 0.000108705 17.3924 -2.97622 -3.21431 
0.0054375 0.00154688 4.11919 1.93448e+22 0.000128643 8.84417 -4.9407 3.82613 
0.0058125 0.00154688 4.14933 1.89058e+22 0.000125724 13.4768 0.799595 -2.81708 
0.0054375 0.00164063 3.82792 1.93707e+22 0.000128815 7.25427 -1.56089 0.377977 
0.0058125 0.00164063 3.83165 2.00605e+22 0.000133403 6.67902 -4.42145 -2.21637 
0.0054375 0.00173438 3.9988 1.97854e+22 0.000131573 12.0271 -2.41263 1.69725 
0.0058125 0.00173438 3.85823 1.75145e+22 0.000116471 7.57269 0.0248217 3.35732 
0.0054375 0.00182813 4.12597 1.9365e+22 0.000128778 9.1798 -3.78879 5.98043 
0.0058125 0.00182813 4.22857 1.94146e+22 0.000129107 7.01371 1.8317 1.25775 
0.0054375 0.00192187 4.10526 1.92213e+22 0.000127822 1.61854 4.7741 3.22706 
0.0054375 0.00201563 3.88307 1.75208e+22 0.000116514 -3.79931 3.04934 -1.14711 
0.0058125 0.00201563 4.03359 1.8479e+22 0.000122885 10.046 -6.41758 5.34515 
0.0061875 0.00154688 3.87282 1.87009e+22 0.000124361 6.88693 -2.79789 -1.81323 
0.0065625 0.00154688 4.20695 1.82619e+22 0.000121442 11.4307 -0.97229 0.167106 
0.0061875 0.00164063 3.84571 1.77151e+22 0.000117805 11.2861 -0.302939 0.302155 
0.0065625 0.00164063 4.17061 1.8129e+22 0.000120558 8.16262 -1.78777 -1.06805 
0.0069375 0.00154688 3.89858 1.92277e+22 0.000127864 7.22578 -2.97838 6.16635 
0.0073125 0.00154688 4.09682 1.67108e+22 0.000111127 12.6005 -2.61595 0.229964 
0.0069375 0.00164063 3.92525 1.76323e+22 0.000117255 7.74583 2.5151 7.11661 
0.0073125 0.00164063 4.26229 1.80462e+22 0.000120007 2.86155 -1.28421 1.57382 
0.0061875 0.00173438 3.95122 1.84019e+22 0.000122373 12.8679 0.0604982 -1.28358 
0.0065625 0.00173438 4.0545 1.74101e+22 0.000115777 8.15368 4.42948 -4.30648 
0.0061875 0.00182813 4.01197 1.84736e+22 0.000122849 3.78267 -0.422988 1.9985 
0.0065625 0.00182813 4.0227 1.82754e+22 0.000121532 4.66366 -3 -1.59439 
0.0069375 0.00173438 4.06548 1.7906e+22 0.000119075 8.60622 -3.32825 -1.01258 
0.0073125 0.00173438 3.92461 1.80887e+22 0.00012029 6.9868 3.02422 6.8244 
0.0069375 0.00182813 3.85914 1.81269e+22 0.000120544 0.377827 0.480263 -2.0258 
0.0073125 0.00182813 3.84121 1.79288e+22 0.000119226 9.29047 -0.327303 0.378812 
0.0076875 0.00154688 4.05096 1.794e+22 0.000119301 7.40126 0.790157 -8.84842 
0.0080625 0.00154688 3.80163 1.75303e+22 0.000116576 7.51959 -0.980365 0.058435 
0.0076875 0.00164063 3.91937 1.86809e+22 0.000124228 8.32334 -1.64172 4.47549 
0.0080625 0.00164063 4.04588 1.83497e+22 0.000122026 6.41574 -0.154468 -0.587069 
0.0084375 0.00154688 3.94944 1.75596e+22 0.000116771 7.93684 4.31001 -3.55066 
0.0088125 0.00154688 3.99593 1.59499e+22 0.000106067 13.8122 -6.09112 3.79595 
0.0084375 0.00164063 4.06056 1.79634e+22 0.000119457 9.50163 -0.0820417 2.27668 
0.0088125 0.00164063 4.0152 1.77427e+22 0.000117989 12.5384 -2.00095 -2.09179 
0.0076875 0.00173438 4.10172 1.72535e+22 0.000114735 11.4802 -3.12542 -10.2998 
0.0080625 0.00173438 3.84103 1.88196e+22 0.00012515 4.88723 -3.23926 -5.213 
0.0076875 0.00182813 4.11978 1.7483e+22 0.000116262 7.86902 3.95527 2.0397 
0.0080625 0.00182813 3.96426 1.95136e+22 0.000129766 4.19871 -3.77505 -1.89249 
0.0084375 0.00173438 4.12735 1.88979e+22 0.000125671 10.8691 -1.46425 -2.16296 
0.0088125 0.00173438 4.09628 1.78277e+22 0.000118554 12.8978 -1.27059 5.59523 
0.0084375 0.00182813 4.21432 1.69382e+22 0.000112639 9.92821 -0.0294255 -2.73993 
0.0088125 0.00182813 3.9196 1.67153e+22 0.000111157 11.1746 -1.2604 -4.75809 
0.0061875 0.00192187 3.96839 1.802e+22 0.000119833 2.66817 -1.51577 2.84585 
0.0065625 0.00192187 3.85177 1.69835e+22 0.00011294 3.24939 5.45942 1.53086 
0.0061875 0.00201563 3.73336 2.04638e+22 0.000136084 8.56732 4.65648 5.82826 
0.0065625 0.00201563 3.98673 1.99847e+22 0.000132898 5.75054 8.21236 2.68668 
0.0069375 0.00192187 4.01569 1.79022e+22 0.00011905 7.73035 -9.8766 -4.53538 
0.0073125 0.00192187 4.12535 1.7808e+22 0.000118423 -4.29332 2.45666 -4.28905 
0.0069375 0.00201563 3.9975 1.93003e+22 0.000128347 1.67093 -5.51605 -1.6938 
0.0073125 0.00201563 4.1397 1.69049e+22 0.000112417 9.30615 4.84444 6.1085 
0.0076875 0.00192187 4.12703 1.81613e+22 0.000120773 3.40389 10.2214 -2.18925 
0.0080625 0.00192187 3.86176 1.70542e+22 0.00011341 2.04539 -1.15992 4.47666 
0.0076875 0.00201563 4.38877 1.88212e+22 0.000125161 0.398126 3.74923 1.53727 
0.0080625 0.00201563 3.74509 1.99847e+22 0.000132898 7.87881 -0.366213 1.94851 
0.0088125 0.00192187 3.89057 1.83026e+22 0.000121712 4.45291 -4.90269 0.0404669 
0.0084375 0.00201563 4.03558 1.77262e+22 0.000117879 0.817257 4.88794 -3.7822 
0.0088125 0.00201563 3.86081 1.6768e+22 0.000111507 5.32566 -4.17438 -3.40189 
0.0091875 0.00154688 3.86071 1.72962e+22 0.00011502 14.3654 -0.88428 1.40611 
0.0095625 0.00154688 4.02705 1.6945e+22 0.000112684 8.87822 -2.82928 -6.44202 
0.0091875 0.00164063 4.18045 1.68321e+22 0.000111933 1.75201 -1.80456 -2.22726 
0.0095625 0.00164063 3.87719 1.74667e+22 0.000116154 10.2673 -0.649809 5.61292 
0.0099375 0.00154688 4.07676 1.85839e+22 0.000123583 8.17326 -1.81416 2.11522 
0.0103125 0.00154688 3.79372 1.63889e+22 0.000108986 10.4324 2.55379 6.49466 
0.0099375 0.00164063 3.96447 1.67217e+22 0.000111199 4.98014 1.63802 1.85799 
0.0103125 0.00164063 3.80053 1.74943e+22 0.000116337 1.48964 -2.45393 -1.25774 
0.0091875 0.00173438 4.16664 1.62616e+22 0.000108139 5.35343 1.72416 2.92991 
0.0095625 0.00173438 3.97233 1.80365e+22 0.000119943 12.0713 -4.98498 0.883362 
0.0091875 0.00182813 3.99466 1.71116e+22 0.000113792 0.482591 -3.03913 -0.559926 
0.0095625 0.00182813 3.88988 1.71611e+22 0.000114121 3.45534 3.51912 -2.04067 
0.0099375 0.00173438 4.20086 1.66792e+22 0.000110917 7.86476 -10.8516 1.16179 
0.0103125 0.00173438 3.90678 1.68097e+22 0.000111785 9.00466 -4.59236 -1.0463 
0.0103125 0.00182813 3.94282 1.65915e+22 0.000110334 1.46148 -0.532987 1.25156 
0.0106875 0.00154688 3.97748 1.61548e+22 0.000107429 8.78548 -4.12155 -2.43895 
0.0110625 0.00154688 3.889 1.63889e+22 0.000108986 10.4241 4.08231 5.30389 
0.0106875 0.00164063 4.07359 1.65837e+22 0.000110282 7.13416 -1.06197 -3.33904 
0.0110625 0.00164063 4.14399 1.79082e+22 0.00011909 13.4635 0.697368 -4.14355 
0.0114375 0.00154688 3.99059 1.6623e+22 0.000110543 10.7929 -6.59988 7.10076 
0.0118125 0.00154688 4.04766 1.70035e+22 0.000113073 6.32052 -1.66291 0.730855 
0.0114375 0.00164063 4.12651 1.57559e+22 0.000104777 9.35678 -3.21274 1.36396 
0.0118125 0.00164063 3.77124 1.66113e+22 0.000110465 17.0865 4.46715 2.21835 
0.0106875 0.00173438 3.87891 1.71229e+22 0.000113868 10.8832 2.63498 -3.35879 
0.0110625 0.00173438 3.98061 1.65748e+22 0.000110222 7.99364 0.627937 -2.39836 
0.0106875 0.00182813 4.06085 1.60963e+22 0.00010704 7.99071 -0.779634 -1.52343 
0.0110625 0.00182813 3.94856 1.66906e+22 0.000110992 11.3001 -3.25017 -3.95101 
0.0114375 0.00173438 3.87154 1.60006e+22 0.000106404 8.19976 -2.81981 -0.336596 
0.0118125 0.00173438 4.05158 1.73057e+22 0.000115083 6.98252 5.76973 6.65277 
0.0114375 0.00182813 3.80549 1.62201e+22 0.000107864 9.96537 1.56846 -4.41963 
0.0118125 0.00182813 4.29016 1.67896e+22 0.000111651 2.19606 0.0970234 -0.653249 
0.0091875 0.00192187 3.82194 1.8444e+22 0.000122652 6.87669 0.763973 -4.69343 
0.0095625 0.00192187 4.01228 1.77373e+22 0.000117953 8.80287 -0.593921 -0.0759189 
0.0091875 0.00201563 4.07558 1.73155e+22 0.000115148 13.0159 -0.264554 6.84832 
0.0095625 0.00201563 3.59359 1.81368e+22 0.00012061 2.11112 -0.777946 2.12206 
0.0099375 0.00192187 3.95541 1.64653e+22 0.000109494 -1.49014 2.82701 -4.57843 
0.0103125 0.00192187 3.79874 1.6748e+22 0.000111374 3.7626 -3.6502 1.80265 
0.0099375 0.00201563 3.77739 1.62205e+22 0.000107866 -1.80423 5.28607 9.66803 
0.0103125 0.00201563 4.09037 1.76577e+22 0.000117424 3.3459 -1.58599 8.14334 
0.0106875 0.00192187 4.15492 1.62297e+22 0.000107928 1.36108 -1.54194 4.71973 
0.0110625 0.00192187 4.05298 1.67951e+22 0.000111687 5.71424 3.12754 -9.11999 
0.0106875 0.00201563 4.12128 1.64258e+22 0.000109232 -1.88732 0.180598 9.15156 
0.0110625 0.00201563 4.36409 1.56045e+22 0.00010377 3.93078 3.21139 4.26254 
0.0114375 0.00192187 3.8045 1.62769e+22 0.000108241 3.06606 5.41233 3.67994 
0.0118125 0.00192187 3.75685 1.59e+22 0.000105735 10.7295 7.48175 1.29021 
0.0114375 0.00201563 3.89367 1.56729e+22 0.000104225 -6.3005 0.490694 4.01433 
0.0118125 0.00201563 4.30951 1.58098e+22 0.000105135 4.47084 4.41176 -0.306574 
0.0121875 0.00154688 4.15735 1.61548e+22 0.000107429 11.5761 5.76829 -2.42904 
0.0125625 0.00154688 4.12897 1.53939e+22 0.000102369 14.166 0.634295 3.93027 
0.0121875 0.00164063 3.89899 1.60319e+22 0.000106612 7.25689 2.88214 1.74133 
0.0125625 0.00164063 4.1827 1.58939e+22 0.000105695 9.24407 7.42817 7.45131 
0.0129375 0.00154688 4.04543 1.54524e+22 0.000102759 5.57863 -3.26444 -3.9148 
0.0133125 0.00154688 3.92711 1.61255e+22 0.000107235 7.91759 5.78989 3.40453 
0.0129375 0.00164063 4.0572 1.57283e+22 0.000104594 7.16297 0.397089 -0.293961 
0.0133125 0.00164063 3.71304 1.53144e+22 0.000101841 7.4415 -1.01035 -8.22277 
0.0121875 0.00173438 4.08572 1.69924e+22 0.000113 5.69177 -8.77205 -3.94934 
0.0125625 0.00173438 4.00014 1.51392e+22 0.000100676 13.5918 7.81812 -0.0631501 
0.0121875 0.00182813 4.09706 1.518e+22 0.000100947 7.85469 -5.12114 3.08599 
0.0125625 0.00182813 3.96244 1.7483e+22 0.000116262 8.35286 8.06714 4.5824 
0.0129375 0.00173438 3.95977 1.6105e+22 0.000107098 -0.739162 -0.892749 0.0444617 
0.0133125 0.00173438 4.07061 1.59484e+22 0.000106057 5.59406 0.0457288 -4.15323 
0.0129375 0.00182813 4.00402 1.49076e+22 9.91356e-05 4.34166 0.105796 -7.61994 
0.0133125 0.00182813 3.92463 1.57e+22 0.000104405 11.2811 -7.68052 -3.50677 
0.0136875 0.00154688 3.87368 1.57158e+22 0.00010451 11.8589 5.38055 7.54794 
0.0140625 0.00154688 4.151 1.49549e+22 9.945e-05 15.7265 -1.22622 -0.317522 
0.0136875 0.00164063 4.0572 1.5618e+22 0.00010386 8.93842 3.38242 3.68298 
0.0140625 0.00164063 4.10591 1.49281e+22 9.92721e-05 13.0745 -4.69083 -2.79897 
0.0144375 0.00154688 3.69626 1.39306e+22 9.26384e-05 17.4203 -2.59899 1.65353 
0.0148125 0.00154688 3.97436 1.42525e+22 9.47792e-05 12.4975 2.98027 7.12495 
0.0144375 0.00164063 3.83033 1.48178e+22 9.85381e-05 13.1777 3.39707 -3.5226 
0.0148125 0.00164063 4.02057 1.50661e+22 0.00010019 7.77634 0.331413 9.30013 
0.0136875 0.00173438 4.08807 1.52175e+22 0.000101196 6.76055 3.33777 0.269915 
0.0140625 0.00173438 4.07632 1.59222e+22 0.000105883 7.61886 -2.78569 -9.33667 
0.0136875 0.00182813 3.7664 1.51057e+22 0.000100453 7.16963 -2.17709 4.66105 
0.0140625 0.00182813 3.98825 1.51057e+22 0.000100453 -0.185972 -0.295886 4.75493 
0.0144375 0.00173438 3.83065 1.50087e+22 9.98077e-05 7.10837 -4.06199 7.23552 
0.0148125 0.00173438 3.97411 1.24768e+22 8.29706e-05 15.0552 -5.64539 -3.41487 
0.0144375 0.00182813 3.86464 1.50067e+22 9.97944e-05 9.50705 -4.58127 -1.51777 
0.0148125 0.00182813 4.05031 1.47095e+22 9.78182e-05 5.70545 -0.488108 -2.27874 
0.0121875 0.00192187 4.12686 1.42982e+22 9.5083e-05 0.790161 3.48761 2.40344 
0.0125625 0.00192187 3.88056 1.60177e+22 0.000106518 5.72911 4.61436 -3.36894 
0.0121875 0.00201563 4.20135 1.62205e+22 0.000107866 3.86685 -7.96242 -8.21823 
0.0125625 0.00201563 4.03461 1.69049e+22 0.000112417 2.88588 2.96791 -1.79299 
0.0129375 0.00192187 3.85194 1.66537e+22 0.000110747 -1.2225 2.06169 -3.14499 
0.0133125 0.00192187 4.1977 1.55466e+22 0.000103385 5.62981 1.48933 1.12154 
0.0129375 0.00201563 4.11992 1.74524e+22 0.000116058 3.1259 -0.428319 7.93515 
0.0133125 0.00201563 3.99116 1.5057e+22 0.000100129 1.28175 -2.3672 -2.03534 
0.0136875 0.00192187 3.99506 1.47457e+22 9.80592e-05 3.39683 -6.26063 5.41976 
0.0140625 0.00192187 4.02936 1.4416e+22 9.58662e-05 15.5125 -1.92723 0.388796 
0.0136875 0.00201563 3.90659 1.58098e+22 0.000105135 5.04062 1.29691 -2.76285 
0.0140625 0.00201563 4.23332 1.37566e+22 9.14814e-05 5.64402 7.41388 -0.470255 
0.0151875 0.00154688 3.74067 1.47793e+22 9.82823e-05 8.59248 3.39613 1.46166 
0.0155625 0.00154688 3.61056 1.41354e+22 9.40007e-05 14.4455 -1.84021 -0.37725 
0.0151875 0.00164063 4.02381 1.38796e+22 9.22992e-05 15.2423 2.10324 2.64755 
0.0155625 0.00164063 4.03578 1.45694e+22 9.68866e-05 5.08664 -4.47471 5.44633 
0.0159375 0.00154688 3.98876 1.39013e+22 9.24438e-05 5.34914 -0.997295 -1.88312 
0.0163125 0.00154688 4.10967 1.38721e+22 9.22491e-05 17.2267 1.00901 -2.83996 
0.0159375 0.00164063 3.96304 1.46522e+22 9.74371e-05 10.4187 4.10361 0.991423 
0.0163125 0.00164063 4.03689 1.46522e+22 9.74371e-05 8.49924 -6.59245 7.11384 
0.0151875 0.00173438 3.91285 1.45649e+22 9.68569e-05 17.7421 6.52749 -0.341067 
0.0155625 0.00173438 3.96482 1.55829e+22 0.000103626 13.3687 -1.37075 -4.80816 
0.0151875 0.00182813 4.04387 1.47343e+22 9.79829e-05 9.35796 -0.0378422 3.94202 
0.0155625 0.00182813 4.13868 1.35952e+22 9.04078e-05 3.8948 0.517054 -1.99172 
0.0159375 0.00173438 3.97629 1.39907e+22 9.30381e-05 0.89505 -0.758202 2.87935 
0.0163125 0.00173438 4.04762 1.41734e+22 9.42532e-05 8.5008 -0.0782525 8.54502 
0.0159375 0.00182813 3.88329 1.3818e+22 9.18899e-05 5.0034 -0.960258 5.19872 
0.0163125 0.00182813 3.94912 1.43876e+22 9.56774e-05 8.32916 -9.01783 -8.61714 
0.0166875 0.00154688 4.12892 1.29063e+22 8.58267e-05 10.8214 -2.18148 -2.85302 
0.0170625 0.00154688 3.77454 1.3755e+22 9.14707e-05 8.70789 -4.6557 -2.99677 
0.0166875 0.00164063 3.80673 1.34381e+22 8.93632e-05 14.7292 -6.33919 -0.124598 
0.0170625 0.00164063 3.90883 1.36864e+22 9.10147e-05 17.4743 -5.27394 1.47214 
0.0174375 0.00154688 4.07631 1.29941e+22 8.64106e-05 15.2143 -5.36092 2.41851 
0.0178125 0.00154688 3.98235 1.34623e+22 8.95245e-05 11.3186 0.0967483 2.10455 
0.0174375 0.00164063 3.98028 1.30518e+22 8.67943e-05 17.4501 2.55312 -2.24077 
0.0178125 0.00164063 4.12898 1.34657e+22 8.95467e-05 12.1333 -6.16438 -0.0366051 
0.0166875 0.00173438 4.09319 1.38863e+22 9.23438e-05 12.7089 6.12408 -1.5214 
0.0170625 0.00173438 3.9766 1.41473e+22 9.40796e-05 12.1837 8.61257 -3.41498 
0.0166875 0.00182813 4.08538 1.35704e+22 9.02431e-05 8.95562 7.4382 8.46911 
0.0170625 0.00182813 3.9631 1.32237e+22 8.79376e-05 9.2382 -0.644683 1.14427 
0.0174375 0.00173438 4.0895 1.30249e+22 8.66157e-05 4.28329 -6.38314 5.84525 
0.0178125 0.00173438 4.0445 1.45127e+22 9.65097e-05 4.2355 1.65737 -1.36396 
0.0174375 0.00182813 4.01587 1.50562e+22 0.000100124 11.7907 -0.0813094 -1.51239 
0.0178125 0.00182813 4.05939 1.28522e+22 8.54674e-05 7.52449 1.99823 -2.13714 
0.0054375 0.000609375 3.75423 1.99098e+22 0.0001324 14.8384 4.37337 1.70509 
0.0058125 0.000609375 3.76859 2.08013e+22 0.000138329 18.387 -0.141264 -6.81536 
0.0054375 0.000703125 3.58462 1.80922e+22 0.000120313 10.1695 -2.20126 -10.4955 
0.0058125 0.000703125 3.91107 1.86073e+22 0.000123738 19.0822 -10.9012 -0.525641 
0.0054375 0.000984375 3.72748 1.94995e+22 0.000129671 13.8479 1.6096 -0.544802 
0.0058125 0.000984375 4.0556 1.82578e+22 0.000121414 12.7926 -4.56624 2.59149 
0.0054375 0.00107813 4.15642 1.97774e+22 0.00013152 11.7473 -2.01425 -9.02443 
0.0058125 0.00107813 4.07878 1.81818e+22 0.000120909 16.5722 5.34962 -1.80066 
0.0069375 0.000796875 4.33285 1.83497e+22 0.000122026 10.3407 0.59923 2.49454 
0.0073125 0.000796875 3.97396 1.81793e+22 0.000120892 9.72181 -1.90703 5.42761 
0.0069375 0.000890625 3.95108 1.94172e+22 0.000129124 20.5723 -0.374879 0.314829 
0.0073125 0.000890625 3.84067 1.65198e+22 0.000109857 16.1018 1.17599 4.99012 
0.0069375 0.000984375 4.34764 1.88096e+22 0.000125084 15.6602 0.569321 -2.05362 
0.0073125 0.000984375 3.69327 1.82578e+22 0.000121414 20.3736 0.575389 3.86564 
0.0069375 0.00107813 3.84137 1.86017e+22 0.000123701 10.5956 4.30485 5.62751 
0.0073125 0.00107813 3.9715 1.90636e+22 0.000126773 7.02811 -3.16107 3.40178 
0.0076875 0.000984375 3.82557 1.83038e+22 0.00012172 16.7511 -9.95043 -4.83488 
0.0080625 0.000984375 3.79171 1.79358e+22 0.000119273 19.5917 0.950949 2.84099 
0.0076875 0.00107813 3.83998 1.79298e+22 0.000119233 10.9812 -2.54348 -3.98006 
0.0080625 0.00107813 4.26622 1.73e+22 0.000115045 17.5084 -6.9416 -5.64235 
0.0069375 0.00117188 3.93781 1.81566e+22 0.000120741 22.2385 3.84801 0.492234 
0.0073125 0.00117188 4.11839 1.71135e+22 0.000113805 10.8542 2.83952 1.16258 
0.0069375 0.00126563 4.10758 1.95301e+22 0.000129875 6.57181 -3.47743 -2.41615 
0.0073125 0.00126563 3.98058 1.80994e+22 0.000120361 16.8113 -3.49336 -2.46597 
0.0069375 0.00135937 4.04704 1.90158e+22 0.000126455 14.0044 6.81026 -2.08829 
0.0073125 0.00135937 3.97882 1.88826e+22 0.000125569 15.4929 1.2217 -2.23383 
0.0069375 0.00145312 3.79788 1.86924e+22 0.000124305 9.27357 -0.793241 -0.453414 
0.0073125 0.00145312 3.91969 1.81317e+22 0.000120576 7.5408 1.24793 -0.427867 
0.0084375 0.00117188 4.04214 1.83497e+22 0.000122026 14.3684 0.62495 -1.82572 
0.0088125 0.00117188 4.05595 1.69204e+22 0.000112521 13.1658 -2.64292 -2.84463 
0.0084375 0.00126563 4.25333 1.81351e+22 0.000120599 10.623 1.56421 -1.6554 
0.0088125 0.00126563 4.00033 1.82067e+22 0.000121074 13.0457 -7.0806 2.1786 
0.0084375 0.00135937 3.87562 1.86495e+22 0.000124019 19.8962 -3.62789 3.97893 
0.0088125 0.00135937 3.78992 1.76837e+22 0.000117597 7.12617 -0.568687 0.427336 
0.0084375 0.00145312 3.82409 1.63559e+22 0.000108767 14.998 3.2878 -8.78567 
0.0088125 0.00145312 4.05984 1.82563e+22 0.000121404 6.58493 2.14166 -9.01583 
0.0106875 0.00135937 4.09967 1.74506e+22 0.000116046 14.4699 2.63286 -3.01227 
0.0110625 0.00135937 3.77272 1.6951e+22 0.000112724 12.1485 -0.184087 3.90718 
0.0106875 0.00145312 4.03052 1.57951e+22 0.000105037 7.6844 1.01538 3.30293 
0.0110625 0.00145312 3.8773 1.67297e+22 0.000111253 14.8274 -0.143309 3.61742 
0.0114375 0.00135937 3.97259 1.57188e+22 0.00010453 20.7002 -1.33303 -2.8693 
0.0118125 0.00135937 3.93665 1.64848e+22 0.000109624 15.2987 7.92653 -3.57854 
0.0114375 0.00145312 4.23792 1.6387e+22 0.000108974 20.9128 1.88323 2.02111 
0.0118125 0.00145312 4.09581 1.71347e+22 0.000113946 14.3539 5.97781 -1.29314 
0.0151875 0.00192187 4.00512 1.45337e+22 9.66494e-05 6.10179 -4.38164 -5.14084 
0.0155625 0.00192187 4.16558 1.45809e+22 9.69627e-05 7.36459 -0.319523 0.906542 
0.0151875 0.00201563 4.48449 1.3825e+22 9.19365e-05 4.74547 1.68583 0.307262 
0.0155625 0.00201563 3.87138 1.51254e+22 0.000100584 -6.26608 5.71102 2.4786 
0.0159375 0.00192187 4.02511 1.3992e+22 9.30466e-05 2.63029 9.13551 4.87835 
0.0163125 0.00192187 3.88353 1.37564e+22 9.14802e-05 3.10891 -2.62236 -0.784771 
0.0159375 0.00201563 3.99729 1.53992e+22 0.000102405 4.91818 1.44081 3.71616 
0.0163125 0.00201563 4.16402 1.42357e+22 9.46673e-05 20.4824 -9.05641 -7.7231 
0.0174375 0.00192187 3.92698 1.4416e+22 9.58662e-05 2.01837 0.897972 0.152859 
0.0178125 0.00192187 4.30089 1.30026e+22 8.64676e-05 1.90908 -7.59269 3.17155 
0.0174375 0.00201563 4.11496 1.4441e+22 9.60327e-05 8.78069 -11.5476 -2.78153 
0.0178125 0.00201563 3.80017 1.2114e+22 8.05582e-05 24.9302 12.9085 -3.03484 
0.00834375 0.00189844 4.02025 1.87909e+22 0.000124959 -1.06724 9.76108 0.710617 
0.00853125 0.00189844 4.29566 1.63109e+22 0.000108467 -6.39818 7.39689 -1.32129 
0.00834375 0.00194531 3.57482 1.87105e+22 0.000124424 1.11682 4.18338 -0.516607 
0.00853125 0.00194531 4.09591 1.72211e+22 0.00011452 5.80776 -2.49657 3.22145 
0.006375 9.375e-05 4.02415 1.90741e+22 0.000126843 7.93669 -2.6303 -2.48295 
0.007125 9.375e-05 3.69802 2.05227e+22 0.000136476 16.0467 12.7334 3.04834 
0.006375 0.00028125 4.16534 1.76254e+22 0.000117209 8.75591 0.682806 3.01651 
0.007125 0.00028125 3.90164 1.74644e+22 0.000116139 20.2087 -1.39034 2.24138 
0.0084375 0.000796875 4.30726 1.95996e+22 0.000130337 23.3186 -8.94327 -9.47636 
0.0088125 0.000796875 3.98669 1.81793e+22 0.000120892 14.7615 -3.45038 -0.682112 
0.0084375 0.000890625 4.043 1.78923e+22 0.000118984 11.9065 8.79809 5.68243 
0.0088125 0.000890625 4.01905 2.03321e+22 0.000135209 12.2134 0.0653994 -1.82876 
0.0099375 0.000796875 3.9359 1.80089e+22 0.000119759 17.8139 -2.64134 -0.0364585 
0.0103125 0.000796875 3.8703 1.81793e+22 0.000120892 14.0836 -2.76064 6.13275 
0.0099375 0.000890625 3.77134 1.78414e+22 0.000118646 17.6705 7.54364 -1.65135 
0.0103125 0.000890625 4.20701 1.55032e+22 0.000103097 16.519 -0.740252 11.2974 
0.0114375 0.00117188 3.97426 1.5916e+22 0.000105841 10.3767 -5.26656 -4.02103 
0.0118125 0.00117188 3.90038 1.59932e+22 0.000106355 15.092 -4.66323 6.00306 
0.0114375 0.00126563 3.87926 1.57028e+22 0.000104424 19.0117 10.1397 -1.40456 
0.0118125 0.00126563 3.99394 1.69547e+22 0.000112749 16.4538 0.154485 -4.40856 
0.0144375 0.00192187 3.79575 1.59235e+22 0.000105891 5.18381 -7.4607 2.95198 
0.0148125 0.00192187 3.93488 1.46044e+22 9.71194e-05 3.99629 4.27826 0.326585 
0.0144375 0.00201563 3.74867 1.46463e+22 9.73981e-05 7.54189 -2.94802 16.5183 
0.0148125 0.00201563 3.90841 1.41672e+22 9.42122e-05 2.47078 -2.28167 -6.65806 
0.0166875 0.00192187 3.9945 1.51697e+22 0.000100879 5.57053 -8.39059 0.367613 
0.0170625 0.00192187 4.10832 1.40626e+22 9.35165e-05 6.12809 0.691187 4.31368 
0.0166875 0.00201563 3.92513 1.43726e+22 9.55776e-05 5.69886 6.33439 3.10449 
0.0170625 0.00201563 3.86472 1.36882e+22 9.10263e-05 4.61872 0.996556 -5.80474 
0.0091875 0.000796875 3.90139 1.62478e+22 0.000108048 20.1729 -13.9332 1.53434 
0.0095625 0.000796875 4.1918 1.7384e+22 0.000115603 16.5252 -10.3506 -6.70415 
0.0091875 0.000890625 3.93205 1.66723e+22 0.000110871 20.6272 5.90862 2.34375 
0.0095625 0.000890625 3.79487 1.87564e+22 0.00012473 15.0632 3.53466 2.08421 
0.0099375 0.000984375 4.0252 1.7246e+22 0.000114686 23.4894 -3.93343 3.28536 
0.0103125 0.000984375 3.88115 1.7154e+22 0.000114074 18.4002 5.03024 -2.75386 