ITEM: TIMESTEP
500000
ITEM: NUMBER OF CELLS
45907
ITEM: BOX BOUNDS oo ao pp
0 0.12
0 0.03
-0.1 0.1
ITEM: CELLS xc yc f_out[1] f_out[2] f_out[3] f_out[4] f_out[5] f_out[6] 
0.003 0.00375 0 0 0 0 0 0 
0.003 0.00525 0 0 0 0 0 0 
0.003 0.00675 0 0 0 0 0 0 
0.003 0.00825 0 0 0 0 0 0 
0.003 0.00975 0 0 0 0 0 0 
0.003 0.01125 0 0 0 0 0 0 
0.003 0.01275 0 0 0 0 0 0 
0.003 0.01425 0 0 0 0 0 0 
0.003 0.01575 0 0 0 0 0 0 
0.003 0.01725 0 0 0 0 0 0 
0.003 0.01875 0 0 0 0 0 0 
0.003 0.02025 0 0 0 0 0 0 
0.003 0.02175 0 0 0 0 0 0 
0.003 0.02325 0 0 0 0 0 0 
0.027 0.02325 0 0 0 0 0 0 
0.003 0.02475 0 0 0 0 0 0 
0.027 0.02475 0 0 0 0 0 0 
0.003 0.02625 0 0 0 0 0 0 
0.027 0.02625 0 0 0 0 0 0 
0.003 0.02775 0 0 0 0 0 0 
0.027 0.02775 0 0 0 0 0 0 
0.003 0.02925 0 0 0 0 0 0 
0.027 0.02925 0 0 0 0 0 0 
0.009 0.01425 0 0 0 0 0 0 
0.009 0.01575 0 0 0 0 0 0 
0.009 0.01725 0 0 0 0 0 0 
0.009 0.01875 0 0 0 0 0 0 
0.009 0.02025 0 0 0 0 0 0 
0.009 0.02175 0 0 0 0 0 0 
0.009 0.02325 0 0 0 0 0 0 
0.009 0.02475 0 0 0 0 0 0 
0.009 0.02625 0 0 0 0 0 0 
0.009 0.02775 0 0 0 0 0 0 
0.009 0.02925 0 0 0 0 0 0 
0.015 0.01425 0 0 0 0 0 0 
0.015 0.01575 0 0 0 0 0 0 
0.015 0.01725 0 0 0 0 0 0 
0.015 0.01875 0 0 0 0 0 0 
0.015 0.02025 0 0 0 0 0 0 
0.015 0.02175 0 0 0 0 0 0 
0.015 0.02325 0 0 0 0 0 0 
0.015 0.02475 0 0 0 0 0 0 
0.015 0.02625 0 0 0 0 0 0 
0.015 0.02775 0 0 0 0 0 0 
0.015 0.02925 0 0 0 0 0 0 
0.021 0.02325 0 0 0 0 0 0 
0.021 0.02475 0 0 0 0 0 0 
0.021 0.02625 0 0 0 0 0 0 
0.021 0.02775 0 0 0 0 0 0 
0.021 0.02925 0 0 0 0 0 0 
0.0015 0.000375 0 0 0 0 0 0 
0.0015 0.001125 0 0 0 0 0 0 
0.0015 0.001875 0 0 0 0 0 0 
0.0015 0.002625 0 0 0 0 0 0 
0.0045 0.002625 0 0 0 0 0 0 
0.0255 0.022125 0 0 0 0 0 0 
0.0285 0.022125 0 0 0 0 0 0 
0.0105 0.000375 1.98641 4.92213e+21 3.27321e-05 4.2516 3.99288 1.37667 
0.0075 0.013125 0 0 0 0 0 0 
0.0105 0.013125 0 0 0 0 0 0 
0.0135 0.013125 0 0 0 0 0 0 
0.0165 0.013125 0 0 0 0 0 0 
0.0195 0.022125 0 0 0 0 0 0 
0.0225 0.022125 0 0 0 0 0 0 
0.00375 0.0001875 1.94195 1.02031e+22 6.78504e-05 32.8134 5.08989 1.19449 
0.00525 0.0001875 1.8942 8.42036e+21 5.59954e-05 41.0194 -4.65504 1.10641 
0.00525 0.0016875 1.9599 7.34825e+21 4.88659e-05 13.9834 0.655899 -0.686468 
0.00375 0.0020625 0 0 0 0 0 0 
0.00525 0.0020625 0 0 0 0 0 0 
0.00675 0.0001875 1.7805 6.05119e+21 4.02404e-05 49.0786 2.35216 -1.32449 
0.00825 0.0001875 2.01612 4.3309e+21 2.88005e-05 21.999 2.60686 -7.43159 
0.00825 0.0005625 1.9882 4.40635e+21 2.93022e-05 24.723 5.97893 -1.84525 
0.01125 0.0031875 0 0 0 0 0 0 
0.01125 0.0035625 0 0 0 0 0 0 
0.01125 0.0046875 0 0 0 0 0 0 
0.01125 0.0050625 0 0 0 0 0 0 
0.01125 0.0054375 0 0 0 0 0 0 
0.01125 0.0058125 0 0 0 0 0 0 
0.01125 0.0061875 0 0 0 0 0 0 
0.01125 0.0065625 0 0 0 0 0 0 
0.01125 0.0069375 0 0 0 0 0 0 
0.01125 0.0073125 0 0 0 0 0 0 
0.01125 0.0084375 0 0 0 0 0 0 
0.01125 0.0088125 0 0 0 0 0 0 
0.01125 0.0091875 0 0 0 0 0 0 
0.01125 0.0039375 0 0 0 0 0 0 
0.01125 0.0043125 0 0 0 0 0 0 
0.01125 0.0076875 0 0 0 0 0 0 
0.01125 0.0080625 0 0 0 0 0 0 
0.003375 0.00046875 1.96913 1.06426e+22 7.07733e-05 24.8314 -0.163011 -0.520876 
0.004125 0.00046875 1.83695 1.07443e+22 7.14493e-05 31.1875 0.0651754 2.24958 
0.003375 0.00065625 1.96118 1.12099e+22 7.45458e-05 21.8702 -3.12277 0.0418684 
0.004125 0.00065625 1.8966 9.77848e+21 6.50269e-05 29.9525 0.589292 -0.707209 
0.003375 0.00084375 1.8885 1.14721e+22 7.62896e-05 23.8483 4.46453 0.0131945 
0.004125 0.00084375 1.9152 1.02345e+22 6.80597e-05 26.6321 -3.08797 1.22559 
0.004125 0.00103125 1.92671 9.75653e+21 6.48809e-05 23.8773 -2.86013 -3.59123 
0.004875 0.00084375 1.87818 9.30901e+21 6.19049e-05 31.22 -0.869433 -4.85235 
0.005625 0.00084375 1.76753 7.33721e+21 4.87925e-05 40.5384 0.636626 -1.96122 
0.004875 0.00103125 1.79242 8.76881e+21 5.83126e-05 31.6145 2.86777 0.690309 
0.005625 0.00103125 1.83883 7.45184e+21 4.95547e-05 38.514 2.55715 0.366149 
0.003375 0.00140625 1.84358 1.11509e+22 7.41535e-05 18.9339 -4.43001 2.04873 
0.004875 0.00121875 1.90975 8.56197e+21 5.69371e-05 25.7041 -0.518335 -0.0771133 
0.005625 0.00121875 1.90682 7.84693e+21 5.21821e-05 26.9283 4.98907 0.13068 
0.029625 0.00496875 2.02815 2.84038e+21 1.88885e-05 0.775667 -3.43701 0.0334332 
0.025875 0.00534375 2.02476 2.53516e+21 1.68588e-05 3.51078 0.709379 -0.844927 
0.024375 0.0216562 2.09364 2.89334e+21 1.92407e-05 -1.89745 3.4354 -2.10479 
0.025125 0.0216562 1.94034 2.78604e+21 1.85272e-05 -1.11877 1.1587 -3.08578 
0.025875 0.0216562 1.95948 2.70736e+21 1.80039e-05 0.345039 0.427554 -1.92336 
0.026625 0.0216562 1.99677 2.87188e+21 1.9098e-05 -0.639158 -0.293016 -3.99271 
0.027375 0.0216562 1.93103 2.83611e+21 1.88601e-05 -2.57475 -2.0923 1.28956 
0.028125 0.0216562 2.03377 2.86115e+21 1.90266e-05 0.582884 3.53331 1.09746 
0.028875 0.0216562 2.04552 2.85042e+21 1.89553e-05 2.65352 5.10562 1.08002 
0.029625 0.0216562 1.93758 2.66444e+21 1.77185e-05 3.93379 0.616278 0.543688 
0.006375 0.00084375 1.93985 6.42509e+21 4.27269e-05 44.9713 3.98536 -0.270494 
0.007125 0.00084375 2.07293 4.9496e+21 3.29148e-05 39.7654 9.86386 -1.22358 
0.006375 0.00103125 1.67232 6.55191e+21 4.35702e-05 46.0094 7.24928 0.247218 
0.007125 0.00103125 1.91383 4.52159e+21 3.00686e-05 43.2977 18.2156 0.664704 
0.007875 0.00234375 1.95568 3.69892e+21 2.45978e-05 6.49954 15.0771 -3.71724 
0.008625 0.00234375 2.06734 3.83413e+21 2.5497e-05 2.94436 16.687 -0.801647 
0.008625 0.00253125 1.97542 3.67531e+21 2.44408e-05 3.09803 14.3861 2.07625 
0.007875 0.00271875 1.97722 3.58836e+21 2.38626e-05 1.85487 10.9421 1.5471 
0.008625 0.00271875 2.0147 3.43433e+21 2.28383e-05 0.0445122 13.8878 -1.93044 
0.007875 0.00290625 1.91064 3.4581e+21 2.29964e-05 3.52103 16.3729 -1.71412 
0.007875 0.00365625 2.04948 3.3895e+21 2.25402e-05 -2.93589 11.0729 -2.61762 
0.008625 0.00365625 1.93676 3.45451e+21 2.29725e-05 -2.60603 10.3605 0.121366 
0.006375 0.00384375 1.88073 3.4726e+21 2.30928e-05 1.19487 4.29227 -2.79003 
0.006375 0.00403125 1.85037 3.44268e+21 2.28938e-05 -2.09523 3.04532 2.08734 
0.006375 0.00496875 2.06817 3.39531e+21 2.25788e-05 1.35063 3.55496 0.52527 
0.006375 0.00515625 2.07257 3.41177e+21 2.26883e-05 3.00653 4.25869 -0.951551 
0.006375 0.00534375 2.01429 3.35957e+21 2.23411e-05 -0.5503 0.702179 0.0777135 
0.006375 0.00553125 1.99127 2.91191e+21 1.93642e-05 0.446097 4.09618 -0.983069 
0.006375 0.00665625 1.98681 3.40168e+21 2.26212e-05 -1.49725 3.31421 0.298272 
0.006375 0.00721875 1.93829 3.26008e+21 2.16795e-05 -0.607723 2.92435 0.12224 
0.006375 0.00740625 1.99453 3.04861e+21 2.02733e-05 -0.909447 -3.25477 0.160665 
0.010125 0.00684375 0 0 0 0 0 0 
0.010125 0.00703125 0 0 0 0 0 0 
0.010125 0.00946875 1.92533 2.97531e+21 1.97858e-05 -0.472275 -0.0234411 -2.14281 
0.010875 0.00946875 1.98255 3.00267e+21 1.99677e-05 1.94104 2.20595 -2.84628 
0.011625 0.00946875 2.00052 3.02319e+21 2.01042e-05 -0.254151 -3.44073 0.652999 
0.013875 0.00515625 2.00605 2.65149e+21 1.76324e-05 -0.181765 -0.155859 0.0462736 
0.012375 0.00909375 2.03324 2.48289e+21 1.65112e-05 8.97739 -4.50398 -1.68449 
0.012375 0.00928125 1.89801 2.32298e+21 1.54478e-05 0.634615 0.793598 0.635752 
0.012375 0.00946875 2.04403 2.87673e+21 1.91303e-05 7.1368 1.05537 -2.24045 
0.018375 0.0180937 0 0 0 0 0 0 
0.018375 0.0182812 0 0 0 0 0 0 
0.018375 0.0199687 0 0 0 0 0 0 
0.018375 0.0201562 0 0 0 0 0 0 
0.018375 0.0210937 0 0 0 0 0 0 
0.018375 0.0212812 0 0 0 0 0 0 
0.019875 0.0216562 2.01457 2.71809e+21 1.80753e-05 0.613493 2.65166 -5.27228 
0.020625 0.0216562 2.008 2.82896e+21 1.88126e-05 3.45469 -3.30981 -1.73488 
0.021375 0.0216562 1.96062 2.6716e+21 1.77661e-05 -3.03095 -1.41769 2.11242 
0.022125 0.0216562 2.0098 2.66087e+21 1.76948e-05 -2.01312 1.18337 1.24068 
0.022875 0.0216562 1.93601 2.73955e+21 1.8218e-05 1.37975 3.19327 -0.245133 
0.023625 0.0216562 1.99019 2.80035e+21 1.86223e-05 2.48927 -1.15853 5.41516 
0.01275 0.0016875 2.02707 2.66909e+21 1.77494e-05 2.34777 -1.06424 1.71333 
0.01275 0.0020625 2.05609 2.62879e+21 1.74815e-05 2.99005 0.129224 0.62614 
0.025125 0.00346875 1.98583 2.93322e+21 1.95059e-05 -2.8787 -0.157568 1.38156 
0.025125 0.00365625 2.05056 2.60945e+21 1.73529e-05 -3.51963 0.93724 0.679568 
0.025125 0.00403125 2.04636 2.74011e+21 1.82217e-05 1.61766 -0.42218 3.03269 
0.026625 0.00496875 1.94135 2.85405e+21 1.89794e-05 4.45317 -1.53827 -2.27895 
0.028125 0.00459375 2.00095 2.75936e+21 1.83497e-05 4.01171 0.413921 -1.52587 
0.028125 0.00478125 2.02102 2.67482e+21 1.77876e-05 1.16727 -0.946604 -0.0215441 
0.027375 0.00553125 2.00971 2.90756e+21 1.93353e-05 2.99032 -1.09364 -1.19584 
0.006375 0.00121875 1.79848 5.44178e+21 3.61878e-05 44.4887 9.99013 1.83045 
0.007125 0.00121875 1.7623 4.3367e+21 2.88391e-05 36.6605 15.2414 -0.619437 
0.006375 0.00140625 1.93058 5.69003e+21 3.78387e-05 33.7675 6.94872 -2.15695 
0.007125 0.00140625 1.88886 4.05626e+21 2.69741e-05 26.4897 20.3378 -5.50882 
0.006375 0.00196875 1.94031 3.39531e+21 2.25788e-05 -1.91232 5.84438 0.137134 
0.007125 0.00196875 2.02054 3.52968e+21 2.34724e-05 9.6458 14.0328 0.557315 
0.006375 0.00215625 1.90866 3.28705e+21 2.18589e-05 1.91959 6.01439 -1.54536 
0.007125 0.00215625 1.99517 3.54818e+21 2.35954e-05 5.61088 12.0005 0.019313 
0.006375 0.00234375 1.84445 3.26855e+21 2.17358e-05 -5.09197 4.26343 7.41819 
0.007125 0.00234375 1.9587 3.47679e+21 2.31207e-05 3.4195 10.7887 -1.6987 
0.006375 0.00253125 2.04486 3.21087e+21 2.13523e-05 -1.02552 7.41017 -8.79378 
0.007125 0.00253125 1.99953 3.28185e+21 2.18243e-05 0.986163 12.0273 3.47378 
0.007875 0.00309375 2.09004 3.71312e+21 2.46922e-05 -2.2024 9.87748 -0.509955 
0.007875 0.00328125 1.84883 3.47679e+21 2.31207e-05 -3.54305 8.23357 -4.5264 
0.008625 0.00328125 1.99178 3.71479e+21 2.47033e-05 -1.1277 8.0828 2.40943 
0.006375 0.00421875 1.9965 3.13877e+21 2.08728e-05 -1.57929 1.88825 1.92047 
0.006375 0.00440625 1.9956 3.43383e+21 2.2835e-05 2.60844 1.93014 -0.209709 
0.006375 0.00459375 1.9944 3.21977e+21 2.14114e-05 -0.0509523 1.48189 0.724054 
0.006375 0.00478125 1.95575 3.31098e+21 2.2018e-05 -0.559582 4.30245 -2.32367 
0.006375 0.00571875 1.97642 3.17266e+21 2.10982e-05 1.88313 1.71996 3.08274 
0.010125 0.00609375 0 0 0 0 0 0 
0.010125 0.00628125 0 0 0 0 0 0 
0.010125 0.00646875 0 0 0 0 0 0 
0.010125 0.00665625 0 0 0 0 0 0 
0.010125 0.00871875 0 0 0 0 0 0 
0.010125 0.00890625 0 0 0 0 0 0 
0.013875 0.00309375 1.96013 2.87904e+21 1.91456e-05 1.62506 -0.0512297 -3.59843 
0.014625 0.00309375 1.97693 2.8388e+21 1.8878e-05 -0.0767683 -0.743002 -1.50661 
0.013875 0.00328125 2.04698 2.46273e+21 1.63771e-05 -2.40683 -6.77512 2.3457 
0.014625 0.00328125 1.88911 2.95596e+21 1.96572e-05 0.378029 -0.285097 -2.4638 
0.015375 0.00421875 1.99314 2.81148e+21 1.86963e-05 2.38192 0.561292 -0.243294 
0.016125 0.00421875 2.06018 2.65588e+21 1.76616e-05 1.43655 0.186728 -1.29739 
0.015375 0.00440625 1.97108 2.62249e+21 1.74396e-05 1.43302 0.20714 0.266548 
0.016125 0.00440625 2.03285 2.68157e+21 1.78324e-05 1.29594 -0.35812 0.388769 
0.012375 0.00871875 1.84438 2.84281e+21 1.89047e-05 10.8756 -3.75071 4.50231 
0.012375 0.00890625 2.09898 2.59235e+21 1.72391e-05 2.14931 3.49961 0.0463842 
0.019875 0.00346875 2.0602 2.74072e+21 1.82258e-05 5.50665 0.0701478 0.448326 
0.020625 0.00346875 2.00714 2.8125e+21 1.87031e-05 1.70373 -0.349927 1.24629 
0.020625 0.00365625 1.9649 2.63731e+21 1.75381e-05 0.447828 3.74678 1.35518 
0.018375 0.00384375 1.9857 2.81194e+21 1.86994e-05 2.3915 1.23527 0.488873 
0.019125 0.00384375 2.03502 2.67061e+21 1.77595e-05 6.09421 -3.23464 -3.96764 
0.018375 0.00403125 2.02108 2.89452e+21 1.92486e-05 -0.431233 -0.852634 2.85411 
0.022875 0.00459375 2.00531 2.79878e+21 1.86119e-05 0.0940463 -3.82354 3.53315 
0.018375 0.0143437 0 0 0 0 0 0 
0.018375 0.0145312 0 0 0 0 0 0 
0.018375 0.0147187 0 0 0 0 0 0 
0.018375 0.0149062 0 0 0 0 0 0 
0.018375 0.0162188 0 0 0 0 0 0 
0.018375 0.0164062 0 0 0 0 0 0 
0.018375 0.0165937 0 0 0 0 0 0 
0.018375 0.0167812 0 0 0 0 0 0 
0.018375 0.0173437 0 0 0 0 0 0 
0.018375 0.0175312 0 0 0 0 0 0 
0.018375 0.0177187 0 0 0 0 0 0 
0.018375 0.0179062 0 0 0 0 0 0 
0.018375 0.0184687 0 0 0 0 0 0 
0.018375 0.0186562 0 0 0 0 0 0 
0.018375 0.0195938 0 0 0 0 0 0 
0.018375 0.0197812 0 0 0 0 0 0 
0.018375 0.0203437 0 0 0 0 0 0 
0.018375 0.0205312 0 0 0 0 0 0 
0.018375 0.0207187 0 0 0 0 0 0 
0.018375 0.0209062 0 0 0 0 0 0 
0.01575 0.0009375 1.92732 2.83998e+21 1.88859e-05 1.93797 -1.29222 1.06898 
0.01725 0.0009375 1.98199 2.75548e+21 1.83239e-05 -3.49122 -4.41589 -0.555308 
0.010125 0.00759375 0 0 0 0 0 0 
0.010125 0.00778125 0 0 0 0 0 0 
0.0286875 0.0111094 2.05966 2.7547e+21 1.83188e-05 -2.2421 -2.77777 -2.27031 
0.0290625 0.0111094 2.05079 2.5917e+21 1.72348e-05 -1.12785 -0.0243633 2.39634 
0.0286875 0.0112031 2.01414 2.67508e+21 1.77893e-05 2.70217 2.47104 -0.869594 
0.0290625 0.0112031 2.01144 2.82863e+21 1.88104e-05 1.77659 -3.38279 -1.1469 
0.0249375 0.0122344 1.95316 3.00094e+21 1.99562e-05 1.61222 0.974132 -4.08178 
0.0253125 0.0122344 1.94832 2.6124e+21 1.73725e-05 -3.10591 3.73271 -2.08475 
0.0249375 0.0123281 2.03649 2.76513e+21 1.83881e-05 -0.294164 -0.79794 -2.21668 
0.0253125 0.0123281 1.99242 2.73208e+21 1.81683e-05 3.10635 2.33802 -1.63456 
0.0271875 0.0124219 2.11711 2.68595e+21 1.78616e-05 3.5873 -1.59511 -0.752141 
0.0275625 0.0124219 2.0318 2.80257e+21 1.86371e-05 -1.23468 -1.19252 1.74674 
0.0271875 0.0125156 2.06986 2.84307e+21 1.89064e-05 -1.19726 -1.87777 -2.48034 
0.0275625 0.0125156 1.99818 2.77796e+21 1.84734e-05 -1.13094 0.102262 -0.132455 
0.0271875 0.0131719 2.10525 2.83546e+21 1.88558e-05 0.0373581 0.303976 -0.19692 
0.0275625 0.0131719 1.90579 2.75985e+21 1.8353e-05 -2.7364 1.46965 -2.0319 
0.0271875 0.0132656 1.99805 2.76765e+21 1.84049e-05 0.914264 0.486335 -2.08712 
0.0275625 0.0132656 1.98449 2.73011e+21 1.81552e-05 3.40644 -0.816394 -4.41879 
0.0286875 0.0133594 2.05405 2.79906e+21 1.86137e-05 -0.361368 -2.47062 -2.22448 
0.0290625 0.0133594 1.97204 2.83972e+21 1.88841e-05 2.6928 -1.41721 1.79687 
0.0286875 0.0134531 1.96633 2.80984e+21 1.86854e-05 5.82861 -4.36077 -1.57026 
0.0290625 0.0134531 1.9701 2.6786e+21 1.78127e-05 5.93972 -1.99 0.307498 
0.0264375 0.0137344 1.99766 2.70945e+21 1.80178e-05 4.24676 -0.328988 -1.43279 
0.0268125 0.0137344 1.98676 2.52156e+21 1.67684e-05 -3.33005 -0.899772 -1.24684 
0.0264375 0.0138281 1.95277 2.73691e+21 1.82005e-05 -1.01881 5.73996 1.45994 
0.0268125 0.0138281 2.03111 2.67798e+21 1.78086e-05 0.299822 2.17503 4.83097 
0.0271875 0.0141094 2.04239 2.68877e+21 1.78803e-05 2.9093 5.79407 0.727373 
0.0275625 0.0141094 2.05939 2.86203e+21 1.90325e-05 1.60774 -1.4955 -1.50362 
0.0271875 0.0142031 2.03488 2.83677e+21 1.88645e-05 0.652842 2.88013 0.0739675 
0.0275625 0.0142031 1.99225 2.70927e+21 1.80167e-05 -1.88625 -1.74709 3.55979 
0.0249375 0.0142969 1.95353 2.91633e+21 1.93936e-05 1.83115 2.09405 -6.34882 
0.0253125 0.0142969 2.00564 2.70101e+21 1.79617e-05 0.231627 -0.58338 -3.54582 
0.0249375 0.0143906 2.0034 2.67083e+21 1.7761e-05 -1.54148 0.261373 -1.18522 
0.0253125 0.0143906 1.96605 2.71801e+21 1.80748e-05 -0.766382 0.292106 0.46035 
0.0241875 0.0148594 1.94277 2.65055e+21 1.76262e-05 2.43613 -1.00948 -1.35916 
0.0245625 0.0148594 2.09452 2.64751e+21 1.76059e-05 1.67541 3.24739 -0.461626 
0.0241875 0.0149531 2.01072 2.81558e+21 1.87236e-05 -1.00685 -1.67053 0.935418 
0.0245625 0.0149531 1.91309 2.79742e+21 1.86028e-05 1.03789 -0.182934 2.61411 
0.0286875 0.0148594 1.91287 2.76328e+21 1.83758e-05 3.78739 2.28587 -2.22866 
0.0290625 0.0148594 2.00189 2.72367e+21 1.81124e-05 0.0973549 0.446294 -1.97463 
0.0290625 0.0149531 1.99341 2.65815e+21 1.76767e-05 -1.59595 2.27726 0.353125 
0.0249375 0.0156094 1.90508 2.75812e+21 1.83415e-05 1.47199 2.30755 -0.420934 
0.0253125 0.0156094 1.90201 2.72621e+21 1.81293e-05 0.611269 -0.47143 -1.74581 
0.0249375 0.0157031 2.01464 2.74742e+21 1.82703e-05 -0.974453 -0.0365732 -3.03788 
0.0264375 0.0154219 2.00713 2.87091e+21 1.90915e-05 2.65495 0.63128 -0.677222 
0.0268125 0.0154219 2.01557 2.87384e+21 1.91111e-05 -3.08682 -0.321102 0.493604 
0.0271875 0.0150469 2.02136 2.65664e+21 1.76666e-05 0.652156 0.611375 -4.18228 
0.0271875 0.0151406 2.00032 2.70597e+21 1.79947e-05 0.0113195 0.949448 -0.33081 
0.0275625 0.0151406 2.0169 2.68803e+21 1.78754e-05 5.00043 -3.90376 -1.04753 
0.0271875 0.0154219 2.02156 2.639e+21 1.75494e-05 2.64053 1.09751 -1.76373 
0.0275625 0.0155156 1.97346 2.82147e+21 1.87627e-05 1.29716 -0.987445 -2.10245 
0.0294375 0.0154219 1.96618 2.85623e+21 1.89939e-05 -1.47138 1.53961 3.55339 
0.0298125 0.0154219 1.99183 2.97365e+21 1.97748e-05 2.40182 -1.27625 2.13306 
0.0294375 0.0155156 2.00965 2.73393e+21 1.81807e-05 0.618229 5.13248 0.821626 
0.0298125 0.0155156 2.01242 2.67558e+21 1.77926e-05 -3.54659 3.09052 3.30945 
0.0253125 0.0163594 1.98982 2.70362e+21 1.79791e-05 1.1024 -3.4408 -2.55712 
0.0249375 0.0164531 1.98889 2.8533e+21 1.89745e-05 3.76689 2.20241 -0.11408 
0.0264375 0.0163594 1.93022 2.77003e+21 1.84207e-05 2.07644 0.397111 2.15858 
0.0268125 0.0163594 1.97036 2.68148e+21 1.78318e-05 -1.34526 -0.948122 0.283084 
0.0264375 0.0164531 2.00473 2.94961e+21 1.96149e-05 3.20165 -1.77364 1.60911 
0.0271875 0.0160781 2.01385 2.88043e+21 1.91549e-05 1.42422 -1.04835 0.0177585 
0.0271875 0.0161719 1.94315 2.61459e+21 1.7387e-05 0.760219 -1.50966 -0.642192 
0.0271875 0.0162656 2.06389 2.60231e+21 1.73053e-05 1.18739 3.29942 0.264667 
0.0275625 0.0162656 1.99944 2.786e+21 1.85269e-05 -0.847012 -1.97524 2.93288 
0.0279375 0.0161719 1.96262 2.60899e+21 1.73498e-05 0.429763 2.54331 -0.575365 
0.0283125 0.0161719 2.01428 2.70417e+21 1.79827e-05 1.49684 3.54677 -4.3155 
0.0279375 0.0162656 2.06664 2.73868e+21 1.82122e-05 -1.42741 -3.81576 1.14934 
0.0283125 0.0162656 2.07649 2.72755e+21 1.81382e-05 -2.54266 0.519481 0.684634 
0.0256875 0.0171094 1.95808 2.87087e+21 1.90913e-05 -0.574569 1.97569 -3.08855 
0.0260625 0.0171094 1.93387 2.70153e+21 1.79651e-05 -0.230942 0.393366 1.95305 
0.0256875 0.0172031 2.00665 2.60259e+21 1.73073e-05 -0.565794 1.2174 0.262868 
0.0271875 0.0165469 1.95033 2.7961e+21 1.85941e-05 -3.06375 4.2688 -0.903699 
0.0275625 0.0165469 2.00929 2.68119e+21 1.78299e-05 -3.68263 0.758378 0.669875 
0.0275625 0.0166406 1.94522 2.73682e+21 1.81998e-05 -2.55136 3.08106 1.50901 
0.0298125 0.0165469 1.8894 2.85629e+21 1.89943e-05 0.0617386 0.0986012 1.53092 
0.0298125 0.0166406 1.98759 2.66609e+21 1.77295e-05 1.95394 -4.27 -4.44296 
0.0271875 0.0169219 1.9908 2.91338e+21 1.9374e-05 0.523908 0.0475574 -1.40674 
0.0283125 0.0171094 1.99065 2.90262e+21 1.93024e-05 1.20556 1.06719 4.07844 
0.0249375 0.0173906 2.10782 2.7099e+21 1.80208e-05 1.97148 -4.20975 -2.18807 
0.0253125 0.0173906 1.96398 2.74634e+21 1.82632e-05 1.22812 3.07448 -2.44672 
0.0249375 0.0174844 1.98427 2.74715e+21 1.82686e-05 0.162086 1.47784 -1.97643 
0.0253125 0.0174844 2.11853 2.86626e+21 1.90606e-05 1.19929 -3.08924 -4.64603 
0.0249375 0.0175781 1.98618 2.77113e+21 1.8428e-05 0.755623 -1.14066 -3.67088 
0.0253125 0.0175781 1.9814 2.69902e+21 1.79485e-05 -0.332024 -0.964629 -0.36523 
0.0249375 0.0176719 2.0334 2.73338e+21 1.8177e-05 1.60764 1.72586 -2.03067 
0.0256875 0.0178594 2.02113 2.59568e+21 1.72613e-05 -1.50308 -1.88821 1.05385 
0.0260625 0.0178594 2.0552 2.801e+21 1.86267e-05 2.64428 0.852531 2.23956 
0.0260625 0.0179531 2.01728 2.72838e+21 1.81437e-05 5.30054 -0.465741 -2.02341 
0.0275625 0.0175781 2.00083 2.7325e+21 1.81711e-05 1.393 0.616089 2.37618 
0.0279375 0.0174844 1.98229 2.75233e+21 1.8303e-05 1.58654 -2.63332 1.28448 
0.0283125 0.0174844 1.96773 2.66171e+21 1.77004e-05 0.158625 3.20301 1.14674 
0.0271875 0.0178594 1.96117 2.76045e+21 1.8357e-05 -2.10909 -1.68979 0.67391 
0.0275625 0.0178594 2.00818 2.69707e+21 1.79355e-05 0.43576 1.47954 1.0423 
0.0275625 0.0179531 2.05517 2.76116e+21 1.83617e-05 -0.675569 3.66474 1.27283 
0.0241875 0.0180469 2.01579 2.72926e+21 1.81496e-05 -0.519178 2.94777 1.81967 
0.0245625 0.0180469 1.93997 2.93245e+21 1.95008e-05 0.820141 -0.204235 -0.112268 
0.0253125 0.0182344 1.99332 2.81292e+21 1.87059e-05 1.30718 -0.160635 3.05958 
0.0249375 0.0183281 2.01719 2.73678e+21 1.81996e-05 -2.55823 -0.698559 0.347047 
0.0268125 0.0181406 1.98293 2.83244e+21 1.88357e-05 -0.317933 0.802323 1.27002 
0.0256875 0.0183281 1.90866 2.71455e+21 1.80517e-05 -1.03867 -1.86043 -0.0166345 
0.0260625 0.0183281 2.01753 2.84793e+21 1.89387e-05 -3.86429 0.596022 -0.339086 
0.0264375 0.0186094 1.93322 2.84381e+21 1.89113e-05 1.51861 0.346468 1.81539 
0.0268125 0.0186094 1.99591 2.72947e+21 1.8151e-05 0.185378 3.51061 1.93905 
0.0271875 0.0181406 1.9983 2.70267e+21 1.79728e-05 0.991689 -0.721312 0.342669 
0.0275625 0.0181406 2.01099 2.75259e+21 1.83047e-05 1.27622 0.128492 -0.1719 
0.0294375 0.0180469 1.99239 2.65149e+21 1.76324e-05 -2.51794 2.58728 0.0764958 
0.0298125 0.0180469 2.05816 2.81204e+21 1.87001e-05 1.48755 0.940132 -0.412317 
0.0275625 0.0184219 1.97966 2.77691e+21 1.84665e-05 0.353184 -2.05799 -2.92194 
0.0275625 0.0185156 2.01615 2.47434e+21 1.64544e-05 -2.66548 -1.88864 2.14628 
0.0298125 0.0186094 1.95872 2.73677e+21 1.81995e-05 1.10007 -2.84233 -0.277629 
0.0253125 0.0190781 2.00985 2.71461e+21 1.80522e-05 -2.03529 1.62712 -1.74647 
0.0264375 0.0187969 2.00605 2.7167e+21 1.8066e-05 1.32277 -2.47637 -1.96112 
0.0268125 0.0187969 2.02221 2.70465e+21 1.79859e-05 -1.34874 -0.466773 -2.24631 
0.0268125 0.0194531 1.95332 2.71115e+21 1.80292e-05 -1.3748 1.00254 0.284982 
0.0271875 0.0187969 1.96947 2.70706e+21 1.8002e-05 1.68019 -0.405094 0.637046 
0.0271875 0.0188906 2.07144 2.74875e+21 1.82792e-05 -3.29467 0.17728 -1.02406 
0.0286875 0.0190781 1.92722 2.65766e+21 1.76735e-05 -1.80775 1.33981 -0.359036 
0.0275625 0.0191719 1.94848 2.61869e+21 1.74143e-05 0.101798 0.671945 -1.65972 
0.0275625 0.0192656 2.04917 2.81978e+21 1.87516e-05 -0.0418589 -2.17193 0.419587 
0.0275625 0.0193594 2.0142 2.74533e+21 1.82564e-05 -0.279458 -0.978367 -0.810038 
0.0275625 0.0194531 2.06102 2.59014e+21 1.72244e-05 -2.97659 -0.181674 0.695115 
0.0286875 0.0192656 2.04896 2.72344e+21 1.81109e-05 -0.777685 2.68381 -2.15824 
0.0256875 0.0195469 1.952 2.6912e+21 1.78965e-05 2.01013 0.0183852 1.45796 
0.0264375 0.0200156 2.02505 2.74353e+21 1.82445e-05 -3.13505 -1.18261 0.781032 
0.0279375 0.0196406 1.96735 2.70602e+21 1.7995e-05 1.25414 2.7212 -0.107191 
0.0275625 0.0198281 2.00818 2.78317e+21 1.85081e-05 1.40062 0.238028 1.422 
0.0283125 0.0197344 2.01098 2.69775e+21 1.794e-05 -0.159621 1.9441 -0.243994 
0.0290625 0.0197344 2.05291 2.63581e+21 1.75281e-05 1.0916 0.0836929 0.0999281 
0.0286875 0.0198281 1.97776 2.71239e+21 1.80374e-05 2.95015 -1.86472 2.15593 
0.0294375 0.0197344 2.00869 2.81933e+21 1.87486e-05 2.1912 -0.746538 0.420995 
0.0275625 0.0200156 2.00072 2.76162e+21 1.83648e-05 1.34996 1.34507 -0.590818 
0.0283125 0.0200156 2.03738 2.82947e+21 1.8816e-05 -0.63042 0.457989 -2.42386 
0.0256875 0.0203906 1.90133 2.62647e+21 1.7466e-05 -0.358563 -1.29968 0.59525 
0.0249375 0.0206719 2.052 2.56007e+21 1.70245e-05 1.68644 -0.653309 -0.657601 
0.0268125 0.0208594 2.00695 2.79098e+21 1.856e-05 1.14886 -0.608066 -0.20197 
0.0298125 0.0202969 1.97896 2.95086e+21 1.96232e-05 0.16313 -2.15139 -0.821033 
0.0290625 0.0205781 2.05179 2.75653e+21 1.83309e-05 0.156501 0.665702 1.0469 
0.0290625 0.0208594 2.03519 2.58698e+21 1.72034e-05 1.81571 1.2238 -3.31409 
0.0084375 0.00867188 1.96561 3.16357e+21 2.10377e-05 6.22656 4.11132 -0.970649 
0.0088125 0.00867188 1.9309 3.02262e+21 2.01004e-05 -0.784227 0.882555 -5.56161 
0.0084375 0.00876563 2.01443 3.06776e+21 2.04006e-05 3.87688 9.48711 -0.49914 
0.0088125 0.00876563 2.02468 3.28467e+21 2.18431e-05 -1.88146 6.69246 0.695391 
0.0084375 0.00904687 2.08881 2.91234e+21 1.93671e-05 3.67687 4.60455 0.227525 
0.0088125 0.00904687 2.11893 3.01242e+21 2.00326e-05 2.84714 7.16225 -1.55914 
0.0084375 0.00914062 1.99779 3.14496e+21 2.0914e-05 3.54798 2.39778 -0.98752 
0.0088125 0.00914062 2.02971 2.83789e+21 1.8872e-05 -2.41268 -1.06542 -1.28139 
0.0076875 0.00923437 2.0897 3.28462e+21 2.18427e-05 -0.764152 5.78133 0.822807 
0.0080625 0.00923437 2.10099 2.97577e+21 1.97888e-05 0.0983948 1.73779 1.88912 
0.0076875 0.00932812 1.98884 3.22249e+21 2.14295e-05 -2.65496 3.67093 0.28161 
0.0080625 0.00932812 1.97993 3.01866e+21 2.00741e-05 0.633424 5.51337 -0.17258 
0.0084375 0.00942187 1.90918 2.8733e+21 1.91075e-05 -0.106919 2.33918 -4.48171 
0.0088125 0.00942187 1.83405 2.7676e+21 1.84045e-05 4.04943 10.1928 4.67197 
0.0084375 0.00951562 1.98706 2.8783e+21 1.91407e-05 0.514751 2.33059 0.206411 
0.0088125 0.00951562 1.98792 2.98772e+21 1.98683e-05 -0.0134637 4.35814 0.491445 
0.0069375 0.00979687 2.0635 3.01285e+21 2.00355e-05 0.611796 4.68928 -1.88107 
0.0073125 0.00979687 1.88438 3.40563e+21 2.26474e-05 1.3863 4.21431 -2.86866 
0.0069375 0.00989062 2.07899 3.16738e+21 2.10631e-05 -0.756377 4.94805 6.00368 
0.0073125 0.00989062 2.1289 3.10788e+21 2.06674e-05 2.9082 0.638901 1.74323 
0.0084375 0.00979687 1.97266 3.12837e+21 2.08037e-05 4.99536 1.95438 1.07234 
0.0088125 0.00979687 1.97772 3.19769e+21 2.12646e-05 0.444453 7.69074 2.68487 
0.0084375 0.00989062 2.03409 3.18569e+21 2.11848e-05 1.23386 3.13998 -1.66215 
0.0088125 0.00989062 2.08196 3.12618e+21 2.07891e-05 6.12539 2.25296 -2.55418 
0.0084375 0.0101719 2.11015 3.18216e+21 2.11614e-05 1.64359 5.7913 1.40243 
0.0088125 0.0101719 2.0198 3.00859e+21 2.00071e-05 2.74051 4.41717 1.88367 
0.0084375 0.0102656 2.00394 2.84882e+21 1.89446e-05 5.18102 1.88235 3.01484 
0.0088125 0.0102656 1.89631 2.85764e+21 1.90033e-05 2.79183 1.15413 2.20635 
0.0084375 0.0111094 1.9603 3.10108e+21 2.06222e-05 7.19257 7.6599 -1.93399 
0.0088125 0.0111094 1.95899 3.1459e+21 2.09203e-05 2.03862 2.77605 1.70962 
0.0084375 0.0112031 1.78923 3.00643e+21 1.99928e-05 3.4146 0.265241 2.50062 
0.0088125 0.0112031 2.02973 3.33374e+21 2.21694e-05 0.847397 2.74245 -1.20044 
0.0091875 0.0105469 2.03556 3.03468e+21 2.01806e-05 3.04296 2.52278 -1.75287 
0.0095625 0.0105469 2.08982 2.9145e+21 1.93814e-05 0.386481 2.81553 -0.704682 
0.0091875 0.0106406 2.09889 2.98242e+21 1.98331e-05 2.0546 3.65753 0.387508 
0.0095625 0.0106406 2.02832 2.99944e+21 1.99462e-05 6.84259 0.935015 4.60605 
0.0091875 0.0111094 2.0514 2.97475e+21 1.97821e-05 0.869317 2.10028 0.181657 
0.0095625 0.0111094 2.10662 3.00735e+21 1.99989e-05 -0.0962319 -0.510607 4.84553 
0.0091875 0.0112031 2.06575 2.88116e+21 1.91597e-05 1.8963 1.88312 1.54642 
0.0095625 0.0112031 1.93243 3.07513e+21 2.04496e-05 1.9363 -0.0428917 -3.35099 
0.0099375 0.0111094 2.08607 3.26e+21 2.1679e-05 1.32012 1.13545 -6.01317 
0.0103125 0.0111094 1.92645 2.94215e+21 1.95653e-05 3.00427 -2.14208 2.38782 
0.0099375 0.0112031 2.09614 2.90137e+21 1.92941e-05 7.19446 -0.118345 0.578254 
0.0103125 0.0112031 2.14838 2.82459e+21 1.87835e-05 10.0335 -2.89951 -0.517901 
0.0106875 0.0109219 1.99332 3.04655e+21 2.02595e-05 7.1717 0.263628 -1.49047 
0.0110625 0.0109219 1.94338 2.9222e+21 1.94326e-05 3.85108 0.057975 -0.453832 
0.0106875 0.0110156 2.01579 2.87267e+21 1.91033e-05 7.41886 1.88354 0.486252 
0.0110625 0.0110156 2.02461 2.82746e+21 1.88026e-05 4.72432 3.48816 5.56994 
0.0069375 0.0114844 1.93657 3.17326e+21 2.11022e-05 -3.68749 -0.207824 -2.22386 
0.0073125 0.0114844 2.05631 2.98011e+21 1.98177e-05 -1.05844 1.90938 1.08182 
0.0069375 0.0115781 1.85026 3.042e+21 2.02293e-05 1.24885 -1.37102 -0.471616 
0.0073125 0.0115781 2.12285 2.94816e+21 1.96052e-05 1.42984 0.250519 -2.92386 
0.0084375 0.0116719 2.02617 2.9206e+21 1.9422e-05 1.90391 6.12213 -0.395937 
0.0088125 0.0116719 1.98704 2.88181e+21 1.91641e-05 3.49277 2.78395 0.623703 
0.0084375 0.0117656 2.15328 3.06278e+21 2.03675e-05 1.97387 -1.93887 1.47661 
0.0088125 0.0117656 1.91448 2.91272e+21 1.93696e-05 1.2303 -1.21466 0.28814 
0.0076875 0.0118594 2.04888 2.98894e+21 1.98765e-05 -1.17299 0.592499 -0.335939 
0.0080625 0.0118594 2.01636 2.88969e+21 1.92165e-05 -1.06634 1.69297 3.18759 
0.0076875 0.0119531 1.91578 3.05261e+21 2.02998e-05 2.54847 2.41166 -3.72714 
0.0080625 0.0119531 1.9737 2.94656e+21 1.95946e-05 4.41594 4.37978 4.72824 
0.0114375 0.0116719 1.97665 2.80424e+21 1.86482e-05 5.34994 -0.998393 3.08458 
0.0118125 0.0116719 1.87634 2.89345e+21 1.92414e-05 5.58483 0.915043 -0.802704 
0.0114375 0.0117656 1.9798 2.85885e+21 1.90114e-05 0.645189 2.23171 -1.43498 
0.0118125 0.0117656 2.08168 3.032e+21 2.01628e-05 1.16172 -1.60672 3.93837 
0.0099375 0.0120469 1.94078 3.0965e+21 2.05917e-05 -0.223665 -0.800245 -2.15106 
0.0103125 0.0120469 2.01734 2.96121e+21 1.96921e-05 0.267601 -3.41602 -1.86173 
0.0099375 0.0121406 1.98388 2.96072e+21 1.96888e-05 4.45121 -1.43418 3.06498 
0.0103125 0.0121406 1.96974 2.93834e+21 1.954e-05 3.88043 2.67026 3.14449 
0.0099375 0.0122344 1.93606 3.03054e+21 2.01531e-05 5.7928 -0.35669 3.39451 
0.0103125 0.0122344 1.90694 2.91583e+21 1.93903e-05 -0.0761254 1.13094 0.873187 
0.0099375 0.0123281 2.04342 3.1911e+21 2.12208e-05 1.08159 -0.856164 2.07257 
0.0103125 0.0123281 1.97421 2.91202e+21 1.93649e-05 2.60325 -1.79422 -3.0172 
0.0144375 0.0116719 2.03498 2.59867e+21 1.72812e-05 6.04011 -1.37859 0.761405 
0.0148125 0.0116719 1.92206 2.71115e+21 1.80292e-05 0.126599 -3.47332 0.679801 
0.0144375 0.0117656 2.10892 2.83192e+21 1.88322e-05 2.95349 0.829087 -2.42303 
0.0148125 0.0117656 1.9595 2.77035e+21 1.84228e-05 5.74512 -2.86668 1.75857 
0.0196875 0.0118594 2.05663 2.71791e+21 1.80741e-05 2.53484 -1.08729 3.29651 
0.0200625 0.0118594 1.99428 2.87061e+21 1.90895e-05 1.63804 0.888333 -0.371256 
0.0196875 0.0119531 1.97565 2.79886e+21 1.86124e-05 3.6988 1.39944 -4.30254 
0.0200625 0.0119531 1.98251 2.8746e+21 1.91161e-05 -0.803145 -0.515013 -2.45058 
0.0226875 0.0116719 1.95922 2.77321e+21 1.84419e-05 3.10132 2.94346 1.53957 
0.0230625 0.0116719 2.00708 2.61807e+21 1.74101e-05 -2.76799 1.60698 -0.537039 
0.0226875 0.0117656 2.04633 2.98582e+21 1.98557e-05 2.13286 2.38938 -1.3816 
0.0230625 0.0117656 1.96737 2.84346e+21 1.8909e-05 -0.564227 -1.39718 -0.983505 
0.0211875 0.0131719 1.95113 2.7461e+21 1.82616e-05 -2.70989 2.24978 -0.301028 
0.0215625 0.0131719 1.9457 2.72204e+21 1.81016e-05 1.53652 1.40345 0.894982 