ITEM: TIMESTEP
500000
ITEM: NUMBER OF CELLS
14851
ITEM: BOX BOUNDS oo ao pp
0 0.12
0 0.03
-0.1 0.1
ITEM: CELLS xc yc f_out[1] f_out[2] f_out[3] f_out[4] f_out[5] f_out[6] 
0.003 0.00225 2.05998 3.85588e+21 2.56416e-05 16.6768 3.30059 0.535443 
0.003 0.00375 0 0 0 0 0 0 
0.003 0.00525 0 0 0 0 0 0 
0.003 0.00675 0 0 0 0 0 0 
0.003 0.00825 0 0 0 0 0 0 
0.003 0.00975 0 0 0 0 0 0 
0.003 0.01125 0 0 0 0 0 0 
0.003 0.01275 0 0 0 0 0 0 
0.003 0.01425 0 0 0 0 0 0 
0.003 0.01575 0 0 0 0 0 0 
0.003 0.01725 0 0 0 0 0 0 
0.003 0.01875 0 0 0 0 0 0 
0.003 0.02025 0 0 0 0 0 0 
0.003 0.02175 0 0 0 0 0 0 
0.003 0.02325 0 0 0 0 0 0 
0.027 0.02325 0 0 0 0 0 0 
0.003 0.02475 0 0 0 0 0 0 
0.027 0.02475 0 0 0 0 0 0 
0.003 0.02625 0 0 0 0 0 0 
0.027 0.02625 0 0 0 0 0 0 
0.003 0.02775 0 0 0 0 0 0 
0.027 0.02775 0 0 0 0 0 0 
0.003 0.02925 0 0 0 0 0 0 
0.027 0.02925 0 0 0 0 0 0 
0.009 0.01425 0 0 0 0 0 0 
0.009 0.01575 0 0 0 0 0 0 
0.009 0.01725 0 0 0 0 0 0 
0.009 0.01875 0 0 0 0 0 0 
0.009 0.02025 0 0 0 0 0 0 
0.009 0.02175 0 0 0 0 0 0 
0.009 0.02325 0 0 0 0 0 0 
0.009 0.02475 0 0 0 0 0 0 
0.009 0.02625 0 0 0 0 0 0 
0.009 0.02775 0 0 0 0 0 0 
0.009 0.02925 0 0 0 0 0 0 
0.015 0.01425 0 0 0 0 0 0 
0.015 0.01575 0 0 0 0 0 0 
0.015 0.01725 0 0 0 0 0 0 
0.015 0.01875 0 0 0 0 0 0 
0.015 0.02025 0 0 0 0 0 0 
0.015 0.02175 0 0 0 0 0 0 
0.015 0.02325 0 0 0 0 0 0 
0.015 0.02475 0 0 0 0 0 0 
0.015 0.02625 0 0 0 0 0 0 
0.015 0.02775 0 0 0 0 0 0 
0.015 0.02925 0 0 0 0 0 0 
0.021 0.02325 0 0 0 0 0 0 
0.021 0.02475 0 0 0 0 0 0 
0.021 0.02625 0 0 0 0 0 0 
0.021 0.02775 0 0 0 0 0 0 
0.021 0.02925 0 0 0 0 0 0 
0.0015 0.000375 0 0 0 0 0 0 
0.0015 0.001125 0 0 0 0 0 0 
0.0255 0.022125 0 0 0 0 0 0 
0.0285 0.022125 0 0 0 0 0 0 
0.0075 0.000375 1.95101 1.72406e+21 1.1465e-05 31.2842 5.66036 2.016 
0.0105 0.000375 2.016 1.8151e+21 1.20704e-05 1.09809 -5.75607 -1.65951 
0.0105 0.001125 2.08095 1.47343e+21 9.79834e-06 5.05294 5.73619 2.98152 
0.0105 0.001875 1.94303 1.45635e+21 9.68474e-06 -0.524237 10.9515 2.27067 
0.0105 0.002625 1.93575 1.31175e+21 8.72316e-06 2.48448 6.22186 5.24039 
0.0075 0.013125 0 0 0 0 0 0 
0.0105 0.013125 0 0 0 0 0 0 
0.0135 0.013125 0 0 0 0 0 0 
0.0165 0.013125 0 0 0 0 0 0 
0.0195 0.022125 0 0 0 0 0 0 
0.0225 0.022125 0 0 0 0 0 0 
0.00375 0.0001875 2.16204 4.33845e+21 2.88507e-05 18.4374 0.267363 7.54857 
0.00525 0.0001875 1.89278 3.39531e+21 2.25788e-05 30.715 -3.71308 -2.16726 
0.00375 0.0005625 1.98139 4.05265e+21 2.69501e-05 21.8812 0.64712 -3.22263 
0.00525 0.0009375 1.91997 3.31382e+21 2.20369e-05 27.0174 0.819126 2.41666 
0.00675 0.0009375 1.94733 2.06133e+21 1.37078e-05 35.0818 3.69078 -0.165643 
0.00825 0.0009375 1.95044 1.46979e+21 9.7741e-06 22.1321 6.03978 1.18736 
0.00675 0.0013125 1.98463 1.89059e+21 1.25724e-05 30.6832 7.36651 0.868432 
0.00825 0.0013125 1.88951 1.48747e+21 9.89166e-06 19.8042 13.2384 -1.10061 
0.00675 0.0016875 2.05487 1.62147e+21 1.07828e-05 16.7471 17.2468 1.69965 
0.00825 0.0016875 2.00233 1.34639e+21 8.95346e-06 8.50835 13.6373 1.80827 
0.00675 0.0020625 1.97226 1.26508e+21 8.41275e-06 2.02558 11.9109 3.24111 
0.00825 0.0020625 1.95139 1.42671e+21 9.48765e-06 7.41008 14.9678 2.157 
0.00675 0.0024375 1.91871 1.17643e+21 7.82328e-06 4.16729 8.47704 1.6459 
0.00675 0.0031875 2.02383 1.17519e+21 7.81499e-06 0.184249 8.7525 2.0116 
0.00675 0.0035625 2.0473 1.16854e+21 7.77082e-06 -0.335801 5.69943 -2.66284 
0.01875 0.0215625 2.01486 8.68355e+20 5.77456e-06 0.43476 -3.18484 2.6957 
0.01125 0.0091875 0 0 0 0 0 0 
0.01275 0.0061875 1.98211 8.41967e+20 5.59908e-06 0.443853 0.594988 0.41502 
0.01275 0.0065625 2.02903 8.35892e+20 5.55868e-06 1.46395 -0.286095 2.89224 
0.003375 0.00121875 1.98794 4.86309e+21 3.23396e-05 17.0063 -2.1149 -0.276881 
0.004125 0.00121875 2.05398 4.34599e+21 2.89008e-05 17.1015 -1.64951 4.80014 
0.003375 0.00140625 2.02854 4.90301e+21 3.2605e-05 16.0207 -1.88616 -3.7748 
0.004125 0.00140625 2.00205 4.36209e+21 2.90079e-05 18.9466 0.642559 -1.70973 
0.028875 0.0139688 1.98304 8.70981e+20 5.79202e-06 -0.559451 -0.139585 1.46733 
0.026625 0.0165937 2.04305 8.87341e+20 5.90081e-06 -1.89714 -0.391344 -2.99264 
0.007875 0.00759375 2.03467 9.94093e+20 6.61072e-06 -0.849881 2.91703 0.0695463 
0.008625 0.00759375 1.98135 9.61305e+20 6.39268e-06 -3.93918 14.328 -2.70587 
0.007875 0.00778125 1.95715 9.55594e+20 6.3547e-06 0.248041 3.2214 -0.0604781 
0.008625 0.00778125 1.93247 1.0065e+21 6.69323e-06 -2.40815 3.08383 0.569762 
0.007875 0.0105937 1.97315 1.00637e+21 6.69238e-06 3.41731 4.22918 -3.01008 
0.008625 0.0105937 1.95065 1.0224e+21 6.79894e-06 0.8976 1.53549 1.10479 
0.007875 0.0107812 1.85166 9.65776e+20 6.42241e-06 1.54108 4.05812 0.263712 
0.008625 0.0107812 2.00561 9.37432e+20 6.23393e-06 -3.45976 -2.50621 -0.364262 
0.007875 0.0119063 2.01176 9.50567e+20 6.32127e-06 0.78755 1.05091 1.08012 
0.009375 0.0115312 2.07501 9.19646e+20 6.11565e-06 8.58936 -2.64658 2.20074 
0.007875 0.0120938 1.98406 1.00227e+21 6.66512e-06 3.59533 -1.19198 0.868636 
0.008625 0.0120938 1.93049 1.00134e+21 6.65889e-06 3.89933 0.88208 -0.816147 
0.007875 0.0122813 2.01489 9.75913e+20 6.48982e-06 2.72784 -0.886761 3.14458 
0.007875 0.0124688 2.00399 9.73037e+20 6.4707e-06 1.44295 1.61335 1.54945 
0.007875 0.0126563 1.98892 9.86015e+20 6.557e-06 0.74974 -0.0520369 -4.17368 
0.008625 0.0126563 2.00898 9.23701e+20 6.14261e-06 -0.201067 -0.399273 2.39541 
0.009375 0.0120938 1.97624 9.14305e+20 6.08013e-06 1.22071 2.40376 -0.0647651 
0.010125 0.0122813 1.98612 9.28914e+20 6.17728e-06 1.09568 -0.993908 -1.60606 
0.016875 0.0124688 2.01231 8.97699e+20 5.9697e-06 2.95513 -1.94444 -0.208074 
0.016875 0.0126563 2.02755 8.44283e+20 5.61448e-06 0.293096 2.87791 2.16967 
0.017625 0.0126563 1.97296 8.77272e+20 5.83386e-06 2.92167 2.01922 3.31119 
0.019875 0.0162188 1.9707 8.43658e+20 5.61033e-06 1.03533 -1.17228 0.619201 
0.022875 0.0160313 2.05069 8.46466e+20 5.629e-06 -0.583115 -0.0477655 0.52083 
0.023625 0.0164062 2.03443 8.32637e+20 5.53703e-06 -2.12977 -0.242753 3.45671 
0.022125 0.0173437 1.9718 8.41138e+20 5.59357e-06 -2.373 0.153713 1.16376 
0.019875 0.0216562 1.96155 8.79803e+20 5.85069e-06 1.16034 5.12972 7.11823 
0.020625 0.0216562 2.01806 8.33309e+20 5.54151e-06 2.99447 3.4144 3.06617 
0.01275 0.0039375 1.94266 8.12448e+20 5.40278e-06 0.392344 -1.60775 -0.741126 
0.01275 0.0043125 2.11 7.98389e+20 5.30929e-06 1.37933 2.81021 -3.81912 
0.01575 0.0039375 1.98364 8.31401e+20 5.52881e-06 0.3935 1.9692 1.18008 
0.01275 0.0046875 1.90949 8.7033e+20 5.78769e-06 -2.44072 -0.0327494 2.52166 
0.01275 0.0050625 2.041 8.24724e+20 5.48441e-06 3.73755 -1.57117 -1.11948 
0.01275 0.0054375 1.91513 8.78096e+20 5.83934e-06 1.19388 -1.74423 1.65985 
0.01275 0.0058125 2.01776 8.90811e+20 5.9239e-06 0.436915 -0.831213 -0.525479 
0.01875 0.0031875 2.01738 8.5038e+20 5.65503e-06 -2.69759 -3.10119 -0.928444 
0.02025 0.0031875 2.01197 8.51267e+20 5.66093e-06 2.0137 2.42971 1.44269 
0.024375 0.00984375 2.11646 8.37006e+20 5.56609e-06 2.17152 -3.30097 2.22459 
0.025125 0.00984375 1.9823 8.58851e+20 5.71136e-06 1.04978 2.89604 -4.66201 
0.024375 0.0100312 2.02262 8.42797e+20 5.6046e-06 1.65859 -1.35736 0.596309 
0.025125 0.0100312 1.99308 8.39413e+20 5.58209e-06 2.87339 -0.723527 -4.85108 
0.025875 0.00984375 2.08858 8.25508e+20 5.48963e-06 3.49593 1.30584 2.34884 
0.026625 0.00984375 2.0222 8.39305e+20 5.58138e-06 -2.09858 -1.23599 -0.219528 
0.025875 0.0100312 2.0612 8.42797e+20 5.6046e-06 -0.307127 1.85652 4.37033 
0.026625 0.0100312 2.01527 8.4731e+20 5.63461e-06 -2.45752 -0.864811 1.95992 
0.027375 0.0109687 2.06896 8.48149e+20 5.64019e-06 1.12737 -0.232291 -2.56654 
0.028125 0.0109687 1.92225 8.74976e+20 5.81859e-06 1.65062 4.10763 1.79348 
0.027375 0.0111562 1.93193 8.38967e+20 5.57913e-06 4.78499 -3.50965 -0.650407 
0.028125 0.0111562 1.96568 8.51141e+20 5.66009e-06 1.61583 2.11695 1.53732 
0.024375 0.0113437 1.92607 8.61017e+20 5.72576e-06 1.2612 -0.034843 -0.580898 
0.025125 0.0113437 2.00358 8.73987e+20 5.81201e-06 0.64561 0.127483 -0.488726 
0.024375 0.0115312 1.99088 8.64683e+20 5.75014e-06 -0.0526677 -0.159453 0.771333 
0.025125 0.0115312 2.03927 7.96961e+20 5.29979e-06 0.484934 -3.05682 1.33345 
0.025875 0.0124688 1.95347 8.7773e+20 5.83691e-06 0.650509 -0.372862 -1.6661 
0.026625 0.0124688 2.06079 8.36885e+20 5.56528e-06 2.79005 1.64781 -0.203015 
0.026625 0.0126563 2.00263 8.06602e+20 5.3639e-06 3.13146 1.2904 -3.05665 
0.029625 0.0132188 1.95547 8.49335e+20 5.64808e-06 0.214263 1.28383 0.622589 
0.029625 0.0134063 2.05617 8.20572e+20 5.4568e-06 -3.06462 1.13343 -0.573929 
0.025125 0.0141563 1.99551 8.77833e+20 5.83759e-06 3.1125 0.373432 0.838655 
0.027375 0.0141563 2.03013 8.77033e+20 5.83227e-06 0.265347 0.646839 -0.914892 
0.025125 0.0145312 2.03794 8.59073e+20 5.71284e-06 2.29063 -2.26545 2.46059 
0.024375 0.0147187 1.95006 8.30444e+20 5.52245e-06 0.553382 0.633708 -1.3655 
0.025125 0.0147187 1.94481 8.22755e+20 5.47132e-06 3.01772 -2.17665 -1.85054 
0.024375 0.0149062 2.0014 8.21517e+20 5.46309e-06 -3.00738 -1.65968 0.235082 
0.025125 0.0149062 2.04795 8.52646e+20 5.6701e-06 2.48216 -0.430429 1.16331 
0.028875 0.0147187 1.94751 8.60432e+20 5.72188e-06 2.59721 -0.767496 0.692486 
0.029625 0.0149062 2.06846 8.36702e+20 5.56407e-06 2.45496 4.1854 -3.95477 
0.026625 0.0150937 2.01191 8.49553e+20 5.64953e-06 1.16482 0.383076 0.675048 
0.027375 0.0154687 1.96271 8.66272e+20 5.76071e-06 1.94705 -2.85975 0.99681 
0.029625 0.0154687 2.0097 8.50175e+20 5.65367e-06 2.64469 1.34793 -1.39183 
0.028875 0.0156563 1.97782 8.24813e+20 5.48501e-06 0.354305 1.96664 -2.47913 
0.026625 0.0162188 2.01373 8.4296e+20 5.60569e-06 -2.62872 1.60086 -1.81386 
0.028875 0.0165937 1.95275 8.28003e+20 5.50622e-06 -3.00806 -0.565665 -0.442366 
0.029625 0.0165937 1.98585 8.21182e+20 5.46086e-06 -0.295273 0.911171 -1.13531 
0.028875 0.0167812 2.02059 8.41682e+20 5.59718e-06 1.41257 0.0709624 -1.12887 
0.028875 0.0216562 1.9175 8.36886e+20 5.56529e-06 -1.35427 0.801105 -2.50628 
0.029625 0.0216562 1.99875 8.61921e+20 5.73177e-06 7.82011 0.929797 -4.26397 
0.006375 0.00946875 2.06855 9.32308e+20 6.19985e-06 -0.0033789 2.29797 -0.00531552 
0.007125 0.00946875 2.02157 1.01837e+21 6.77214e-06 -4.03178 4.56376 -1.16128 
0.006375 0.00965625 1.94731 9.36181e+20 6.22561e-06 -2.92779 -2.23481 -0.7307 
0.007125 0.00965625 1.93078 1.00328e+21 6.67182e-06 -3.04175 3.86968 -0.523816 
0.006375 0.0102187 2.00627 1.04663e+21 6.96006e-06 1.52797 2.98754 -0.389306 
0.007125 0.0102187 2.06651 1.02005e+21 6.7833e-06 0.607404 1.26866 1.70646 
0.006375 0.0104062 1.99331 1.03185e+21 6.86178e-06 -0.0129807 1.99618 -0.668333 
0.007125 0.0104062 1.97053 9.34236e+20 6.21267e-06 0.609989 3.10492 -0.877425 
0.007875 0.0102187 2.01427 1.02891e+21 6.84222e-06 2.42261 -0.135072 -0.957118 
0.008625 0.0102187 2.0546 1.0134e+21 6.73911e-06 4.92636 4.1914 -1.00652 
0.007875 0.0104062 2.06808 1.0158e+21 6.7551e-06 -3.25176 4.06332 1.19383 
0.007875 0.0109687 1.96986 9.76094e+20 6.49102e-06 2.54003 2.9309 5.66061 
0.008625 0.0109687 2.11527 9.89507e+20 6.58022e-06 0.00890963 -1.23322 0.950302 
0.007875 0.0111562 1.93792 9.63747e+20 6.40892e-06 -0.658727 2.90369 -2.34635 
0.008625 0.0111562 2.05209 9.80993e+20 6.5236e-06 1.95677 -0.392987 -2.87887 
0.010875 0.0105937 1.94781 9.49751e+20 6.31584e-06 4.23011 1.66072 -0.633815 
0.011625 0.0105937 1.98646 9.11291e+20 6.06008e-06 4.86876 6.07371 2.34047 
0.010875 0.0107812 1.93587 9.17487e+20 6.10129e-06 2.78444 -4.41563 0.399752 
0.011625 0.0107812 2.03037 8.76546e+20 5.82903e-06 2.29568 -1.86647 0.450313 
0.010125 0.0109687 1.98173 9.55458e+20 6.35379e-06 -0.920733 -0.0108189 1.34172 
0.009375 0.0111562 1.95348 9.90123e+20 6.58432e-06 -0.0355769 0.234319 0.886136 
0.010125 0.0111562 1.93054 8.82589e+20 5.86922e-06 2.79999 3.01657 3.19681 
0.007875 0.0115312 2.08572 9.92276e+20 6.59863e-06 0.512954 3.87438 2.94403 
0.009375 0.0117188 1.94434 9.90886e+20 6.58939e-06 2.8667 -1.44126 -1.30761 
0.010125 0.0117188 2.01655 8.84651e+20 5.88293e-06 3.18072 3.52361 0.105999 
0.009375 0.0119063 1.95091 9.54369e+20 6.34655e-06 4.85405 -0.268494 5.78972 
0.010125 0.0119063 1.95108 9.44863e+20 6.28334e-06 3.32017 -1.53852 -2.13031 
0.010875 0.0117188 1.97552 9.27145e+20 6.16551e-06 7.38555 -1.05441 3.16123 
0.011625 0.0117188 1.90823 8.62438e+20 5.73521e-06 2.22862 2.12661 -2.04808 
0.010875 0.0119063 1.89239 9.09692e+20 6.04945e-06 6.60895 3.55689 2.40611 
0.010875 0.0120938 1.87741 9.23663e+20 6.14236e-06 1.33798 0.550043 -1.28595 
0.011625 0.0120938 2.01029 8.8623e+20 5.89343e-06 1.00063 1.10477 2.54073 
0.011625 0.0122813 1.97471 8.71779e+20 5.79733e-06 3.35498 2.90884 -3.62076 
0.010125 0.0124688 1.9239 9.08592e+20 6.04213e-06 2.71592 0.185793 1.51482 
0.009375 0.0126563 1.938 9.26145e+20 6.15887e-06 3.56528 7.14154 -4.17985 
0.010125 0.0126563 2.05889 9.77462e+20 6.50012e-06 2.95297 1.20663 -2.62496 
0.015375 0.0113437 1.95122 8.68001e+20 5.77221e-06 3.13138 1.56568 -0.212262 
0.016125 0.0113437 2.03034 8.5104e+20 5.65942e-06 6.20861 3.99225 -0.710121 
0.015375 0.0115312 2.00265 8.58795e+20 5.71098e-06 -2.22986 0.795456 0.557991 
0.016125 0.0115312 2.01525 8.77443e+20 5.83499e-06 2.62081 3.57594 1.55765 
0.016875 0.0113437 1.97189 8.41063e+20 5.59307e-06 4.52707 0.396681 5.07813 
0.016875 0.0115312 2.00803 8.44072e+20 5.61308e-06 1.26553 -2.28139 -0.134209 
0.017625 0.0115312 1.91404 8.80387e+20 5.85457e-06 2.27541 -0.77264 -4.09857 
0.016875 0.0117188 2.00468 8.14149e+20 5.41409e-06 -0.0300992 -0.310763 2.15692 
0.016875 0.0119063 2.01824 8.84027e+20 5.87878e-06 2.61492 -0.0315401 -2.08342 
0.017625 0.0119063 1.91355 9.11593e+20 6.0621e-06 1.43462 -2.21478 -1.13635 
0.013875 0.0120938 1.96104 8.5722e+20 5.70051e-06 1.86817 2.21242 -0.0315018 
0.013875 0.0122813 1.96951 8.49662e+20 5.65025e-06 1.84469 0.734842 -1.45164 
0.013875 0.0124688 1.95393 8.52315e+20 5.6679e-06 0.189429 -0.887237 1.53819 
0.014625 0.0124688 2.01878 8.94069e+20 5.94556e-06 0.347326 3.01623 -1.7049 
0.013875 0.0126563 2.01504 9.34698e+20 6.21574e-06 0.443967 -1.94675 -0.537492 
0.014625 0.0126563 1.95178 8.90712e+20 5.92324e-06 2.70501 2.72167 -0.75099 
0.015375 0.0120938 2.00935 8.70321e+20 5.78764e-06 4.5819 2.51257 -0.496601 
0.016125 0.0120938 1.94096 8.54412e+20 5.68184e-06 -0.017667 0.298936 2.18672 
0.015375 0.0122813 2.00004 8.3676e+20 5.56445e-06 3.63125 -0.213878 2.80937 
0.016125 0.0122813 1.95774 8.54269e+20 5.68089e-06 4.20668 -1.51035 1.38177 
0.019875 0.0109687 2.03891 8.67754e+20 5.77056e-06 -0.431067 -1.70489 -1.80564 
0.020625 0.0109687 2.00686 8.35767e+20 5.55785e-06 2.80789 0.474973 0.0866894 
0.019875 0.0111562 1.92884 8.27808e+20 5.50492e-06 3.85622 -0.949161 -3.25022 
0.020625 0.0111562 1.99133 9.12009e+20 6.06486e-06 1.4004 -2.5653 0.706767 
0.022875 0.0109687 1.95099 8.34736e+20 5.55099e-06 4.47499 -0.167103 1.36922 
0.023625 0.0109687 2.06016 8.21322e+20 5.46179e-06 3.22498 1.64381 -4.74811 
0.022875 0.0111562 2.01986 8.24764e+20 5.48468e-06 -1.56629 1.14819 -0.122693 
0.023625 0.0111562 2.00545 8.623e+20 5.73429e-06 -1.61636 2.29306 1.19432 
0.018375 0.0120938 1.98795 8.28209e+20 5.50759e-06 3.16927 0.801128 -2.00482 
0.018375 0.0122813 2.02593 8.54269e+20 5.68089e-06 2.82902 -0.788557 0.407455 
0.019125 0.0122813 2.00711 8.43211e+20 5.60735e-06 0.135013 -2.24173 1.88518 
0.022875 0.0130313 2.09046 8.5287e+20 5.67159e-06 1.20857 3.87133 3.0307 
0.023625 0.0130313 1.96871 8.29421e+20 5.51565e-06 1.44934 1.24402 -0.319935 
0.022125 0.0137813 2.03113 8.24523e+20 5.48308e-06 0.967569 -1.60384 0.00256314 
0.023625 0.0143437 1.89214 8.41898e+20 5.59862e-06 -0.823912 -0.298607 -0.801098 
0.022875 0.0145312 1.98093 8.53621e+20 5.67658e-06 2.52358 -0.681841 -1.62597 
0.023625 0.0145312 2.00508 8.58294e+20 5.70766e-06 1.41893 -3.10291 0.809043 
0.020625 0.0160313 1.93102 8.03401e+20 5.34262e-06 -0.806185 0.550972 -0.619674 
0.022875 0.0171562 1.97362 8.50331e+20 5.6547e-06 0.659837 -0.921956 1.47474 
0.022875 0.0216562 1.95434 8.58344e+20 5.70799e-06 -4.36273 -1.7462 1.98627 
0.023625 0.0216562 2.21436 8.19003e+20 5.44637e-06 3.07948 2.04226 2.08576 
0.022875 0.00871875 2.10768 8.30775e+20 5.52465e-06 -2.38932 -0.323479 -1.78731 
0.023625 0.00871875 1.9443 8.90487e+20 5.92174e-06 -0.28678 0.552802 3.79536 
0.022875 0.00890625 1.99229 8.48866e+20 5.64496e-06 0.585644 0.447958 -5.12573 
0.023625 0.00890625 2.05428 8.39971e+20 5.58581e-06 -2.28867 0.795782 -0.261341 
0.0255 0.000375 2.07639 7.77148e+20 5.16803e-06 2.29113 3.28962 0.742384 
0.0285 0.000375 2.02184 8.29964e+20 5.51926e-06 2.43923 2.93839 -3.28316 
0.0135 0.000375 1.96479 8.24223e+20 5.48108e-06 -0.773885 -2.39915 -1.50799 
0.0165 0.000375 1.98486 8.41281e+20 5.59452e-06 -4.6551 -0.856915 -5.97698 
0.01575 0.0031875 1.93124 8.89437e+20 5.91476e-06 -1.78112 -1.44388 -1.84178 
0.01725 0.0031875 1.90937 8.57481e+20 5.70225e-06 2.8151 1.05767 -1.75986 
0.02625 0.0039375 1.9649 8.56551e+20 5.69607e-06 1.71369 1.52677 0.800354 
0.02175 0.0024375 2.03219 8.09069e+20 5.38031e-06 -1.9765 1.95593 -4.06368 
0.02325 0.0024375 2.00368 9.00772e+20 5.99013e-06 3.77061 -1.1549 0.925331 
0.02175 0.0028125 2.04141 8.5109e+20 5.65975e-06 1.81716 4.17566 -0.928783 
0.02325 0.0028125 1.99722 7.525e+20 5.00413e-06 5.65196 1.61785 -4.80477 
0.02025 0.0039375 2.01812 8.18466e+20 5.4428e-06 1.1621 2.34813 -1.41157 
0.02175 0.0039375 2.02267 8.70923e+20 5.79164e-06 4.69447 -2.55844 0.213181 
0.02325 0.0039375 2.00432 8.21341e+20 5.46191e-06 1.06322 -1.05463 0.581259 
0.028875 0.00909375 2.18317 8.30119e+20 5.52029e-06 -0.788394 0.123809 -0.411225 
0.029625 0.00909375 2.02066 8.2763e+20 5.50374e-06 -1.78022 4.06928 -0.34893 
0.028875 0.00928125 1.93808 8.49931e+20 5.65204e-06 -1.96677 2.41442 -0.399135 
0.029625 0.00928125 2.02016 8.70661e+20 5.7899e-06 -2.58877 2.75188 -2.16866 
0.025875 0.0102187 2.06667 8.1072e+20 5.39129e-06 -4.96257 -2.95428 1.90511 
0.026625 0.0102187 2.02755 8.29548e+20 5.5165e-06 0.253356 2.83039 -3.3733 
0.025875 0.0104062 2.03988 8.40703e+20 5.59068e-06 1.33827 1.65309 -5.46489 
0.026625 0.0104062 1.98309 8.61368e+20 5.72809e-06 -0.470522 -3.42961 2.24037 
0.028875 0.00984375 2.01694 8.64599e+20 5.74959e-06 -1.79842 -1.68614 -2.47251 
0.029625 0.00984375 2.05338 8.20909e+20 5.45905e-06 2.54109 -0.101064 -1.51351 
0.028875 0.0100312 1.9932 8.2813e+20 5.50707e-06 -2.40767 -1.66452 -2.13237 
0.029625 0.0100312 1.96098 8.45054e+20 5.61961e-06 -2.12433 1.9114 1.00544 
0.027375 0.0102187 1.93098 8.31763e+20 5.53123e-06 2.6222 1.14053 1.34502 
0.028125 0.0102187 1.90158 8.8714e+20 5.89948e-06 -1.89961 -0.502818 -1.8347 
0.027375 0.0104062 1.96923 8.05901e+20 5.35924e-06 -0.969656 -1.20017 0.758842 
0.028125 0.0104062 1.99212 8.30915e+20 5.52559e-06 3.58577 5.09791 2.8557 
0.024375 0.0109687 2.01027 8.45054e+20 5.61961e-06 2.51897 1.2866 3.80852 
0.025125 0.0109687 1.96759 8.11004e+20 5.39318e-06 5.4476 -2.15285 -0.548793 
0.025125 0.0111562 1.991 8.15634e+20 5.42397e-06 -3.34227 -1.77059 2.59375 
0.028875 0.0109687 1.99276 8.3164e+20 5.53041e-06 4.03584 1.54105 -3.94682 
0.029625 0.0109687 1.98156 8.2029e+20 5.45493e-06 -0.402327 -0.440979 -0.785661 
0.028875 0.0111562 1.9244 8.45054e+20 5.61961e-06 -1.24432 0.111705 -0.441385 
0.029625 0.0111562 1.99935 8.2375e+20 5.47794e-06 2.62717 -2.29987 2.0269 
0.025875 0.0113437 1.92438 8.36074e+20 5.5599e-06 -1.47262 0.195174 -0.877821 
0.026625 0.0113437 1.94303 8.70994e+20 5.79211e-06 -2.27961 -5.08383 2.13723 
0.025875 0.0115312 1.97527 8.35239e+20 5.55434e-06 3.59502 -0.732799 1.87964 
0.025875 0.0117188 2.06381 8.69198e+20 5.78017e-06 0.812526 4.27347 -0.0787418 
0.026625 0.0117188 1.99168 8.86582e+20 5.89577e-06 -3.16342 0.0937524 1.00278 
0.025875 0.0119063 2.01008 8.73571e+20 5.80925e-06 1.54728 -0.143401 1.28506 
0.026625 0.0119063 1.92624 8.3935e+20 5.58168e-06 0.3946 0.494096 1.48262 
0.027375 0.0117188 2.02186 8.55677e+20 5.69025e-06 3.81541 -1.62114 -0.996002 
0.028125 0.0117188 1.99761 7.99662e+20 5.31775e-06 0.721768 -0.222702 0.173123 
0.027375 0.0119063 2.03017 8.58362e+20 5.70811e-06 2.87699 -0.363519 -2.95409 
0.028125 0.0119063 2.03615 8.25092e+20 5.48686e-06 0.0613694 -0.342645 3.73257 
0.028875 0.0120938 1.99378 8.30081e+20 5.52004e-06 -2.5284 3.63463 0.084534 
0.028875 0.0122813 1.9623 8.6072e+20 5.72379e-06 -3.70879 -0.740178 -1.40248 
0.029625 0.0122813 2.00775 8.57955e+20 5.7054e-06 2.01594 0.900897 -1.59158 
0.025875 0.0128438 2.01484 8.51222e+20 5.66063e-06 1.27622 2.51031 5.2647 
0.026625 0.0128438 1.9866 8.63559e+20 5.74266e-06 -0.0967964 -3.48636 -2.38195 
0.025875 0.0130313 1.86155 7.92075e+20 5.2673e-06 3.33104 -2.06391 -0.610192 
0.024375 0.0132188 2.01304 8.61321e+20 5.72779e-06 2.91784 -0.98544 -2.53156 
0.025875 0.0132188 1.92287 8.2793e+20 5.50574e-06 -1.78392 -1.33786 4.18953 
0.026625 0.0132188 1.91898 8.19368e+20 5.4488e-06 2.6889 -0.252791 4.83348 
0.025875 0.0134063 2.04622 8.27325e+20 5.50171e-06 0.54622 -0.530349 2.40446 
0.026625 0.0134063 1.97475 7.98622e+20 5.31084e-06 -0.974986 1.9849 3.562 
0.027375 0.0132188 2.02865 8.47622e+20 5.63669e-06 -0.135388 1.40028 -0.0814568 
0.027375 0.0134063 2.00309 8.77134e+20 5.83294e-06 0.242547 -1.0627 0.957609 
0.028125 0.0134063 1.96459 8.15506e+20 5.42312e-06 2.22021 -1.81134 -2.60276 
0.025875 0.0135938 2.03814 8.15081e+20 5.42029e-06 2.47751 -2.33503 -2.36987 
0.026625 0.0135938 1.91397 8.18412e+20 5.44244e-06 4.9535 4.05146 1.00365 
0.025875 0.0137813 1.99057 8.20417e+20 5.45577e-06 1.66233 0.898984 -0.992255 
0.026625 0.0139688 1.99221 7.88339e+20 5.24245e-06 -0.162418 1.86294 0.819775 
0.025875 0.0141563 2.00358 8.57046e+20 5.69936e-06 2.88431 1.765 0.670769 
0.026625 0.0141563 1.9909 8.44254e+20 5.61429e-06 -1.28883 4.71858 -0.0828683 
0.025875 0.0143437 1.9224 7.90611e+20 5.25756e-06 2.01943 4.58374 1.52488 
0.027375 0.0143437 1.9025 8.50577e+20 5.65634e-06 -3.01772 -3.27802 2.02907 
0.026625 0.0154687 1.95936 8.42127e+20 5.60015e-06 0.423397 -2.32939 0.913664 
0.028125 0.0152812 1.90882 7.89507e+20 5.25022e-06 4.31996 -0.35583 1.8244 
0.024375 0.0173437 1.98092 8.36571e+20 5.56319e-06 -2.19525 -0.429519 1.98058 
0.024375 0.0216562 2.14558 8.29733e+20 5.51772e-06 -0.926695 -4.59053 0.862871 
0.025125 0.0216562 2.03613 8.15427e+20 5.42259e-06 2.55767 3.81508 -1.6686 
0.007875 0.00571875 2.06168 1.02317e+21 6.80407e-06 -4.92982 8.80966 -1.28681 
0.008625 0.00571875 2.01446 1.12014e+21 7.44894e-06 1.85886 5.85523 1.27036 
0.007875 0.00590625 2.10442 1.19955e+21 7.97704e-06 0.460246 9.6021 -0.66603 
0.008625 0.00590625 2.0389 1.10374e+21 7.3399e-06 1.40243 3.80264 -4.67665 
0.007875 0.00609375 1.97735 1.14964e+21 7.64514e-06 -1.12831 4.96418 -1.63819 
0.008625 0.00609375 1.99231 1.08278e+21 7.20051e-06 -0.861951 5.3317 0.586904 
0.007875 0.00628125 1.94068 1.10452e+21 7.34503e-06 -0.265192 8.47622 1.60091 
0.008625 0.00628125 1.97604 1.04686e+21 6.9616e-06 0.662628 5.1565 0.430966 
0.007875 0.00684375 1.92539 1.022e+21 6.79632e-06 -4.12347 6.1205 1.80982 
0.008625 0.00684375 2.03313 1.07327e+21 7.13723e-06 -3.41121 9.42498 -2.40247 
0.007875 0.00703125 1.91156 9.77043e+20 6.49734e-06 0.269091 5.92555 -0.886965 
0.008625 0.00703125 1.99937 1.06074e+21 7.05395e-06 -3.58123 8.02802 0.207626 
0.007875 0.00721875 2.02741 1.06612e+21 7.08967e-06 0.371618 3.44633 0.525271 
0.008625 0.00721875 1.96173 1.11002e+21 7.3816e-06 1.16421 1.8392 -2.88887 
0.007875 0.00740625 1.96071 9.59663e+20 6.38176e-06 -2.56223 7.74211 -4.19217 
0.008625 0.00740625 2.09545 1.03149e+21 6.85938e-06 -3.23612 7.58481 2.05358 
0.006375 0.00796875 1.92435 9.00089e+20 5.98559e-06 -1.77229 3.49687 0.504121 
0.007125 0.00796875 1.98329 1.10496e+21 7.34799e-06 0.118905 6.5609 3.52436 
0.006375 0.00815625 1.94003 1.00949e+21 6.71308e-06 1.41509 1.23876 0.498288 
0.007125 0.00815625 2.07948 1.00324e+21 6.67155e-06 1.73996 6.57827 2.14251 
0.007875 0.00796875 1.98712 9.81399e+20 6.5263e-06 3.11644 6.27514 2.96027 
0.008625 0.00796875 2.02272 9.98442e+20 6.63964e-06 -0.247312 2.45937 -1.85937 
0.007875 0.00815625 2.02553 1.01434e+21 6.74537e-06 0.19888 4.63287 1.87395 
0.008625 0.00815625 1.90754 1.03516e+21 6.88379e-06 -3.00968 4.08751 0.253837 
0.006375 0.00834375 2.03111 1.09616e+21 7.28948e-06 -3.52249 3.07057 -0.29375 
0.007125 0.00834375 1.88997 1.01189e+21 6.7291e-06 -1.03744 5.20403 -1.88469 
0.006375 0.00853125 2.10687 1.04222e+21 6.93078e-06 -0.675939 2.28205 2.53277 
0.007125 0.00853125 1.85316 1.01884e+21 6.77529e-06 0.395203 4.99143 2.59442 
0.007875 0.00834375 2.05456 1.00104e+21 6.65694e-06 -1.64406 3.10703 -2.49828 
0.008625 0.00834375 1.91109 1.13126e+21 7.52288e-06 0.816985 5.33557 0.363225 
0.008625 0.00853125 2.13823 1.02813e+21 6.83704e-06 -1.88719 3.75261 0.706094 
0.007875 0.00871875 1.95678 1.07741e+21 7.16478e-06 0.622224 2.53738 1.63447 
0.008625 0.00871875 1.95839 1.02679e+21 6.82813e-06 0.957417 1.18324 2.51752 
0.007875 0.00890625 1.93976 9.97545e+20 6.63367e-06 -0.20464 2.33955 -1.88633 
0.008625 0.00890625 1.99787 9.7213e+20 6.46466e-06 0.994267 6.36462 -5.70395 
0.008625 0.00946875 1.96617 1.00641e+21 6.69266e-06 4.32258 6.69522 2.90178 
0.007875 0.00965625 1.98449 9.89217e+20 6.57829e-06 -1.85262 5.32438 2.06686 
0.008625 0.00965625 1.95811 1.00211e+21 6.66403e-06 0.666133 1.88027 3.1541 
0.006375 0.00984375 1.94382 9.16194e+20 6.09269e-06 1.38064 2.76076 0.734835 
0.007125 0.00984375 2.01859 1.00717e+21 6.69765e-06 6.24128 1.661 0.621301 
0.006375 0.0100312 1.90829 1.03446e+21 6.87914e-06 -0.305819 2.93235 2.71114 
0.007125 0.0100312 2.00832 9.93982e+20 6.60998e-06 3.33426 4.03627 1.18249 
0.007875 0.00984375 1.91174 9.85321e+20 6.55239e-06 3.39519 -1.40508 -3.83242 
0.008625 0.00984375 1.94152 9.74974e+20 6.48357e-06 4.9467 5.49846 4.747 
0.007875 0.0100312 2.11284 1.06619e+21 7.09016e-06 0.689179 0.117 -2.81403 
0.008625 0.0100312 2.0259 9.64648e+20 6.41491e-06 0.262303 1.12521 -0.699142 
0.009375 0.00984375 2.17285 9.79573e+20 6.51416e-06 3.63772 2.40298 2.99221 
0.010125 0.00984375 2.0133 9.76123e+20 6.49122e-06 -0.672574 -4.10381 5.11912 
0.009375 0.0100312 2.09971 9.57878e+20 6.36989e-06 5.18955 1.70808 -4.42679 
0.010125 0.0100312 2.04578 8.69875e+20 5.78467e-06 5.31038 2.1838 0.407354 
0.010875 0.00984375 2.00674 9.26685e+20 6.16245e-06 2.86957 -5.2631 -3.03724 
0.011625 0.00984375 1.99821 9.01391e+20 5.99425e-06 4.52579 -0.428175 -0.145259 
0.010875 0.0100312 1.97874 9.46596e+20 6.29486e-06 4.15395 -2.26687 -1.01056 
0.011625 0.0100312 1.91641 9.45467e+20 6.28736e-06 6.11444 -1.15996 -0.282573 
0.010875 0.0102187 2.0091 9.52485e+20 6.33403e-06 0.978969 -4.53885 -0.482519 
0.011625 0.0102187 1.91836 9.58023e+20 6.37085e-06 3.99496 -0.657863 3.1275 
0.010875 0.0104062 1.95238 9.36411e+20 6.22713e-06 2.69892 -3.57606 -1.88089 
0.011625 0.0104062 1.924 9.30973e+20 6.19097e-06 6.11213 0.613633 0.417424 
0.006375 0.0105937 2.05185 9.39468e+20 6.24746e-06 -0.703778 2.06587 -2.65959 
0.007125 0.0105937 2.07747 9.43341e+20 6.27322e-06 1.46872 -0.51006 3.33011 
0.006375 0.0107812 1.84006 9.86115e+20 6.55766e-06 0.679448 2.74634 -2.65997 
0.007125 0.0107812 2.04274 9.80472e+20 6.52014e-06 -0.812786 6.56084 0.258395 
0.006375 0.0109687 1.89055 9.75062e+20 6.48416e-06 -0.97609 3.61124 -3.47285 
0.007125 0.0109687 2.01318 9.79189e+20 6.51161e-06 -0.186002 1.13754 0.382675 
0.006375 0.0111562 1.95237 9.43457e+20 6.27399e-06 -0.109565 -0.803835 -4.94962 
0.007125 0.0111562 1.88969 9.9621e+20 6.6248e-06 -0.291418 2.90489 0.925213 
0.011625 0.0109687 2.03333 8.70849e+20 5.79115e-06 1.88397 -1.99217 2.1813 
0.010875 0.0111562 2.08927 9.15052e+20 6.0851e-06 0.253533 -2.07783 -1.04379 
0.011625 0.0111562 1.98848 9.394e+20 6.24701e-06 0.268114 -1.1115 -2.85119 
0.010875 0.0113437 1.98698 9.13895e+20 6.0774e-06 2.84464 -4.46534 0.813136 
0.011625 0.0113437 2.09169 9.13895e+20 6.0774e-06 1.64844 -2.27527 -1.4877 
0.010875 0.0115312 2.04359 8.85294e+20 5.88721e-06 6.23023 -3.57291 -0.502213 
0.010875 0.0124688 1.9645 9.80299e+20 6.51899e-06 5.14787 -0.908769 -0.277129 
0.010875 0.0126563 2.12183 9.66465e+20 6.427e-06 -1.33855 -0.0175666 2.09706 
0.011625 0.0126563 1.90887 9.44473e+20 6.28074e-06 5.31989 3.22255 -1.57681 
0.015375 0.00909375 1.99378 8.88613e+20 5.90928e-06 2.74693 0.403738 -0.861729 
0.016125 0.00909375 1.86309 8.20163e+20 5.45408e-06 4.96928 1.33224 2.74998 
0.015375 0.00928125 2.02778 8.80417e+20 5.85477e-06 1.33527 -2.38549 1.23056 
0.016125 0.00928125 2.00188 9.03586e+20 6.00884e-06 3.40592 -3.05634 2.70476 
0.012375 0.00984375 1.9932 9.0599e+20 6.02483e-06 3.07916 2.13573 -0.182879 
0.013125 0.00984375 2.00427 8.74947e+20 5.8184e-06 2.43236 -1.93865 0.527854 
0.012375 0.0100312 1.96622 9.09364e+20 6.04727e-06 3.97737 0.00283186 2.07519 
0.013125 0.0100312 2.03373 8.96953e+20 5.96474e-06 2.83752 2.66999 -0.660017 
0.012375 0.0102187 2.08949 9.3255e+20 6.20145e-06 3.48988 1.23766 -1.9072 
0.013125 0.0102187 1.96675 8.67205e+20 5.76691e-06 2.65652 -5.2842 -0.160383 
0.012375 0.0104062 2.05382 8.97258e+20 5.96677e-06 -2.77394 2.92976 -1.89569 
0.013125 0.0104062 2.00768 8.76594e+20 5.82935e-06 4.58695 -1.83723 -1.30369 
0.013875 0.0102187 1.99372 9.52485e+20 6.33403e-06 0.926989 -1.19144 -1.41604 
0.014625 0.0102187 1.93772 8.6942e+20 5.78164e-06 7.75577 0.452664 1.32014 
0.013875 0.0104062 2.02991 8.71156e+20 5.79319e-06 8.75835 -0.989269 -2.31319 
0.014625 0.0104062 1.90518 8.38528e+20 5.57621e-06 5.41301 -2.40126 0.898133 
0.012375 0.0105937 2.06247 9.18769e+20 6.10981e-06 4.05481 3.12449 -2.599 
0.013125 0.0105937 2.00387 8.4078e+20 5.59119e-06 3.98604 -7.82111 4.44833 
0.012375 0.0107812 2.04682 9.09089e+20 6.04544e-06 2.3721 0.682146 -1.93392 
0.013125 0.0107812 1.97215 8.89144e+20 5.9128e-06 3.34882 -0.778828 1.88593 
0.013875 0.0105937 1.95899 8.67489e+20 5.7688e-06 0.585568 -3.09036 0.130213 
0.014625 0.0105937 1.88975 9.02744e+20 6.00325e-06 3.51504 1.1436 0.893388 
0.013875 0.0107812 2.02942 8.76546e+20 5.82903e-06 5.76048 1.62997 -4.3439 
0.014625 0.0107812 2.00185 8.35606e+20 5.55678e-06 3.39827 -0.0464797 0.964236 
0.012375 0.0109687 1.97189 9.16249e+20 6.09305e-06 2.82296 0.688689 5.84764 
0.013125 0.0109687 1.96774 8.71881e+20 5.79801e-06 2.79226 -2.09615 0.0518287 