ITEM: TIMESTEP
500000
ITEM: NUMBER OF CELLS
35216
ITEM: BOX BOUNDS oo ao pp
0 0.12
0 0.03
-0.1 0.1
ITEM: CELLS xc yc f_out[1] f_out[2] f_out[3] f_out[4] f_out[5] f_out[6] 
0.003 0.00375 0 0 0 0 0 0 
0.003 0.00525 0 0 0 0 0 0 
0.003 0.00675 0 0 0 0 0 0 
0.003 0.00825 0 0 0 0 0 0 
0.003 0.00975 0 0 0 0 0 0 
0.003 0.01125 0 0 0 0 0 0 
0.003 0.01275 0 0 0 0 0 0 
0.003 0.01425 0 0 0 0 0 0 
0.003 0.01575 0 0 0 0 0 0 
0.003 0.01725 0 0 0 0 0 0 
0.003 0.01875 0 0 0 0 0 0 
0.003 0.02025 0 0 0 0 0 0 
0.003 0.02175 0 0 0 0 0 0 
0.003 0.02325 0 0 0 0 0 0 
0.027 0.02325 0 0 0 0 0 0 
0.003 0.02475 0 0 0 0 0 0 
0.027 0.02475 0 0 0 0 0 0 
0.003 0.02625 0 0 0 0 0 0 
0.027 0.02625 0 0 0 0 0 0 
0.003 0.02775 0 0 0 0 0 0 
0.027 0.02775 0 0 0 0 0 0 
0.003 0.02925 0 0 0 0 0 0 
0.027 0.02925 0 0 0 0 0 0 
0.009 0.01425 0 0 0 0 0 0 
0.009 0.01575 0 0 0 0 0 0 
0.009 0.01725 0 0 0 0 0 0 
0.009 0.01875 0 0 0 0 0 0 
0.009 0.02025 0 0 0 0 0 0 
0.009 0.02175 0 0 0 0 0 0 
0.009 0.02325 0 0 0 0 0 0 
0.009 0.02475 0 0 0 0 0 0 
0.009 0.02625 0 0 0 0 0 0 
0.009 0.02775 0 0 0 0 0 0 
0.009 0.02925 0 0 0 0 0 0 
0.015 0.01425 0 0 0 0 0 0 
0.015 0.01575 0 0 0 0 0 0 
0.015 0.01725 0 0 0 0 0 0 
0.015 0.01875 0 0 0 0 0 0 
0.015 0.02025 0 0 0 0 0 0 
0.015 0.02175 0 0 0 0 0 0 
0.015 0.02325 0 0 0 0 0 0 
0.015 0.02475 0 0 0 0 0 0 
0.015 0.02625 0 0 0 0 0 0 
0.015 0.02775 0 0 0 0 0 0 
0.015 0.02925 0 0 0 0 0 0 
0.021 0.02325 0 0 0 0 0 0 
0.021 0.02475 0 0 0 0 0 0 
0.021 0.02625 0 0 0 0 0 0 
0.021 0.02775 0 0 0 0 0 0 
0.021 0.02925 0 0 0 0 0 0 
0.0015 0.000375 0 0 0 0 0 0 
0.0015 0.001125 0 0 0 0 0 0 
0.0015 0.001875 0 0 0 0 0 0 
0.0015 0.002625 0 0 0 0 0 0 
0.0045 0.002625 0 0 0 0 0 0 
0.0255 0.022125 0 0 0 0 0 0 
0.0285 0.022125 0 0 0 0 0 0 
0.0105 0.000375 2.10467 4.55911e+21 3.0318e-05 5.65061 3.39761 1.28669 
0.0075 0.013125 0 0 0 0 0 0 
0.0105 0.013125 0 0 0 0 0 0 
0.0135 0.013125 0 0 0 0 0 0 
0.0165 0.013125 0 0 0 0 0 0 
0.0195 0.022125 0 0 0 0 0 0 
0.0225 0.022125 0 0 0 0 0 0 
0.00375 0.0001875 1.81334 1.03745e+22 6.89907e-05 29.7021 -0.106432 -3.66402 
0.00525 0.0001875 1.8376 8.42036e+21 5.59954e-05 39.0101 -4.2666 3.10234 
0.00525 0.0016875 2.08917 7.92818e+21 5.27224e-05 15.6259 2.48689 0.795662 
0.00375 0.0020625 0 0 0 0 0 0 
0.00525 0.0020625 0 0 0 0 0 0 
0.01125 0.0039375 0 0 0 0 0 0 
0.01125 0.0043125 0 0 0 0 0 0 
0.01125 0.0046875 0 0 0 0 0 0 
0.01125 0.0050625 0 0 0 0 0 0 
0.01125 0.0069375 0 0 0 0 0 0 
0.01125 0.0073125 0 0 0 0 0 0 
0.01125 0.0076875 0 0 0 0 0 0 
0.01125 0.0080625 0 0 0 0 0 0 
0.01125 0.0084375 0 0 0 0 0 0 
0.01125 0.0088125 0 0 0 0 0 0 
0.01125 0.0091875 0 0 0 0 0 0 
0.0135 0.000375 1.96071 2.41608e+21 1.60669e-05 4.41792 -3.74352 -4.11873 
0.00675 0.0001875 1.68942 5.49285e+21 3.65275e-05 50.2407 5.26881 -0.83841 
0.00825 0.0001875 1.86734 4.10455e+21 2.72952e-05 28.7137 6.88005 -0.668877 
0.00675 0.0005625 1.73903 5.30674e+21 3.52898e-05 51.8098 4.37917 -3.51043 
0.00825 0.0005625 2.04711 4.28563e+21 2.84994e-05 25.1649 4.94042 -2.79662 
0.01125 0.0031875 0 0 0 0 0 0 
0.01125 0.0035625 0 0 0 0 0 0 
0.01125 0.0054375 0 0 0 0 0 0 
0.01125 0.0058125 0 0 0 0 0 0 
0.01125 0.0061875 0 0 0 0 0 0 
0.01125 0.0065625 0 0 0 0 0 0 
0.01275 0.0016875 1.93952 2.33899e+21 1.55543e-05 -2.12925 1.05644 -2.28386 
0.01275 0.0020625 1.98516 2.45388e+21 1.63183e-05 1.74569 2.0923 -0.0926263 
0.003375 0.00046875 2.06161 1.08967e+22 7.24634e-05 25.7762 -1.49201 -0.0138188 
0.004125 0.00046875 1.93685 9.05415e+21 6.02101e-05 34.7203 2.99915 -2.02405 
0.003375 0.00065625 1.9906 1.07334e+22 7.13769e-05 24.63 -5.00898 -3.59753 
0.004125 0.00065625 1.84445 1.0658e+22 7.08759e-05 32.1012 3.20616 -0.852791 
0.004875 0.00046875 1.85049 8.32982e+21 5.53933e-05 34.4549 -4.22432 2.23886 
0.005625 0.00046875 1.83047 7.89522e+21 5.25032e-05 47.478 2.58483 1.66444 
0.004875 0.00065625 1.91246 8.10562e+21 5.39024e-05 34.6643 -1.6276 1.97272 
0.005625 0.00065625 1.75421 7.07086e+21 4.70212e-05 46.2348 -0.336341 -4.08466 
0.003375 0.00084375 1.89768 1.06073e+22 7.05385e-05 24.8475 -4.95088 4.77706 
0.004125 0.00084375 1.93675 1.05296e+22 7.00221e-05 30.453 -3.58427 0.0268609 
0.003375 0.00103125 1.92454 1.2e+22 7.98e-05 23.866 -2.21939 -1.06321 
0.004125 0.00103125 1.90479 9.59191e+21 6.37862e-05 27.5574 0.93519 -1.36417 
0.004875 0.00084375 1.84746 8.58467e+21 5.70881e-05 35.0793 -1.01893 -0.763127 
0.005625 0.00084375 1.76126 7.20308e+21 4.79005e-05 42.0766 -0.994226 0.653157 
0.004875 0.00103125 1.90484 8.72491e+21 5.80206e-05 36.8531 -3.10583 -0.172849 
0.005625 0.00103125 1.8127 6.91408e+21 4.59786e-05 40.0272 -1.65345 -1.12431 
0.003375 0.00121875 2.01422 1.0667e+22 7.09358e-05 23.7227 -4.79869 -1.42986 
0.004125 0.00121875 1.89377 9.86206e+21 6.55827e-05 23.0073 0.491019 -0.602382 
0.004875 0.00121875 1.94535 8.32053e+21 5.53315e-05 23.9248 -3.53107 1.3223 
0.005625 0.00121875 1.93162 7.20617e+21 4.79211e-05 30.4004 -3.29404 0.333385 
0.004875 0.00140625 1.92811 8.31372e+21 5.52862e-05 26.24 -0.377069 -0.922178 
0.005625 0.00140625 1.93275 7.09845e+21 4.72047e-05 22.1884 -0.291973 0.813015 
0.024375 0.00515625 2.00872 2.33542e+21 1.55306e-05 -1.39601 3.31039 1.79938 
0.025125 0.00515625 2.01668 2.31347e+21 1.53846e-05 3.32097 -4.04136 -2.02076 
0.027375 0.00459375 2.00635 2.30604e+21 1.53351e-05 1.52009 -0.896736 4.76066 
0.028125 0.00459375 2.08879 2.4169e+21 1.60724e-05 2.8203 0.217357 1.30258 
0.024375 0.0216562 2.02083 2.17805e+21 1.4484e-05 -0.928389 0.78081 1.50834 
0.025125 0.0216562 2.04402 2.31395e+21 1.53878e-05 -0.0970705 3.66281 3.40665 
0.025875 0.0216562 1.98905 2.19951e+21 1.46267e-05 1.12829 -2.82535 -1.11427 
0.026625 0.0216562 2.10052 2.33541e+21 1.55305e-05 -1.50674 1.18129 2.41375 
0.027375 0.0216562 1.88829 2.35687e+21 1.56732e-05 -0.870102 0.306705 -0.405648 
0.028125 0.0216562 2.09694 2.38906e+21 1.58872e-05 0.30757 -2.14227 2.55645 
0.028875 0.0216562 2.12153 2.28892e+21 1.52213e-05 -1.94769 0.0852056 -0.513461 
0.029625 0.0216562 1.97513 2.46059e+21 1.63629e-05 -1.22552 1.56478 3.19536 
0.006375 0.00271875 1.96327 2.88016e+21 1.9153e-05 1.5215 2.67276 2.56119 
0.007125 0.00271875 2.02864 2.92647e+21 1.9461e-05 -3.21176 11.8445 -2.19509 
0.006375 0.00290625 1.8719 2.97911e+21 1.98111e-05 8.07757 4.3617 -0.546278 
0.007125 0.00290625 1.86687 2.99858e+21 1.99405e-05 -0.943503 6.83249 0.224971 
0.007875 0.00271875 1.86332 3.3261e+21 2.21186e-05 4.65294 15.1526 -1.0066 
0.008625 0.00271875 1.99271 3.35108e+21 2.22847e-05 -0.169192 16.3491 -1.87695 
0.007875 0.00290625 2.03618 3.10762e+21 2.06657e-05 3.02112 9.61353 4.40449 
0.008625 0.00290625 1.93119 3.14267e+21 2.08987e-05 1.97926 15.5701 -1.45133 
0.007875 0.00309375 2.0311 3.17535e+21 2.11161e-05 -2.94807 9.45074 1.7579 
0.008625 0.00309375 2.03046 3.21559e+21 2.13837e-05 0.0186103 12.3449 3.29602 
0.006375 0.00346875 1.99607 2.8386e+21 1.88767e-05 1.93301 3.66132 5.8092 
0.007125 0.00346875 1.87984 2.93648e+21 1.95276e-05 -3.90062 6.88161 -1.31666 
0.006375 0.00365625 2.00572 2.89617e+21 1.92595e-05 1.50685 6.63864 -3.79115 
0.006375 0.00384375 2.0199 2.86531e+21 1.90543e-05 -4.46958 9.86558 1.04757 
0.007125 0.00384375 2.00934 3.00922e+21 2.00113e-05 -1.05483 7.68129 2.12523 
0.006375 0.00403125 1.96197 2.80047e+21 1.86231e-05 2.13538 4.52851 0.0420769 
0.007875 0.00403125 2.04338 2.97874e+21 1.98087e-05 0.201781 10.3304 0.0991153 
0.006375 0.00421875 1.92325 3.13877e+21 2.08728e-05 -0.723908 8.75317 -2.06817 
0.006375 0.00440625 2.08864 2.96668e+21 1.97284e-05 -3.44156 5.98791 3.79157 
0.007875 0.00421875 1.91829 2.87587e+21 1.91245e-05 -3.40769 10.3166 0.442456 
0.006375 0.00459375 2.0973 3.28906e+21 2.18722e-05 -0.0998172 5.79822 -1.76545 
0.006375 0.00478125 1.96318 2.78726e+21 1.85353e-05 -0.278359 3.15071 -4.36657 
0.006375 0.00496875 1.98805 2.85291e+21 1.89719e-05 3.44464 3.40139 -1.04466 
0.006375 0.00515625 1.93348 2.96318e+21 1.97051e-05 -1.03538 5.25259 -2.95118 
0.006375 0.00534375 1.93617 2.91083e+21 1.9357e-05 -0.956994 5.21781 4.61973 
0.006375 0.00553125 2.03708 2.93876e+21 1.95428e-05 6.12193 0.68049 -0.555319 
0.006375 0.00571875 2.07464 2.89807e+21 1.92722e-05 -1.75619 3.42556 0.644611 
0.006375 0.00590625 1.88699 3.00368e+21 1.99745e-05 -5.19678 3.52294 -1.38871 
0.006375 0.00609375 1.93131 2.82768e+21 1.88041e-05 0.889048 0.287521 3.00237 
0.006375 0.00628125 1.99879 2.88179e+21 1.91639e-05 -4.91445 4.62728 0.252203 
0.006375 0.00646875 2.03456 2.9754e+21 1.97864e-05 2.04722 2.11843 -1.54444 
0.006375 0.00684375 1.92232 2.75655e+21 1.83311e-05 -2.4826 5.58242 -2.13364 
0.006375 0.00703125 2.08882 2.74039e+21 1.82236e-05 -0.864669 5.90515 1.24343 
0.006375 0.00721875 2.07397 2.81031e+21 1.86886e-05 -0.9464 -0.0738392 3.04402 
0.006375 0.00740625 1.97115 2.63029e+21 1.74914e-05 0.0536623 5.93182 -1.04528 
0.010125 0.00684375 0 0 0 0 0 0 
0.010125 0.00703125 0 0 0 0 0 0 
0.006375 0.00778125 2.0041 2.77897e+21 1.84801e-05 -1.60834 3.73091 -3.23108 
0.010125 0.00796875 0 0 0 0 0 0 
0.010125 0.00815625 0 0 0 0 0 0 
0.006375 0.00853125 2.07473 2.74361e+21 1.8245e-05 -0.453752 1.86999 -2.54084 
0.006375 0.00890625 1.91458 2.64476e+21 1.75877e-05 0.603364 6.48992 -0.785362 
0.010125 0.00834375 0 0 0 0 0 0 
0.010125 0.00853125 0 0 0 0 0 0 
0.006375 0.00928125 1.92076 2.68881e+21 1.78806e-05 1.99904 2.00794 -0.29483 
0.010125 0.00946875 2.07835 2.31869e+21 1.54193e-05 8.47023 3.25085 -4.11862 
0.010875 0.00946875 1.99483 2.48284e+21 1.65109e-05 0.845183 -2.31423 2.31627 
0.011625 0.00946875 2.09866 2.647e+21 1.76025e-05 -0.306814 -1.60115 -3.11161 
0.017625 0.00459375 2.14244 2.42922e+21 1.61543e-05 3.27212 -0.425606 -0.0145336 
0.017625 0.00478125 2.06028 2.40734e+21 1.60088e-05 2.11475 4.18246 -1.84407 
0.014625 0.00534375 1.93528 2.30643e+21 1.53377e-05 0.788209 -2.84168 0.6665 
0.013875 0.00553125 1.95196 2.3285e+21 1.54845e-05 0.113068 -2.90578 2.00464 
0.015375 0.00553125 2.06156 2.28963e+21 1.5226e-05 5.05409 -1.70243 -1.16816 
0.016125 0.00553125 1.9106 2.28963e+21 1.5226e-05 1.82503 -3.27488 2.68838 
0.016875 0.00571875 1.97639 2.41048e+21 1.60297e-05 0.345856 1.19991 1.00167 
0.012375 0.00946875 1.99577 2.74668e+21 1.82654e-05 1.19098 -1.23586 1.02385 
0.020625 0.00534375 1.9864 2.32549e+21 1.54645e-05 -0.118652 -1.91784 2.40755 
0.019875 0.00571875 1.99558 2.35111e+21 1.56349e-05 4.33914 -4.59141 1.02738 
0.018375 0.0143437 0 0 0 0 0 0 
0.018375 0.0145312 0 0 0 0 0 0 
0.018375 0.0169687 0 0 0 0 0 0 
0.018375 0.0171562 0 0 0 0 0 0 
0.018375 0.0180937 0 0 0 0 0 0 
0.018375 0.0182812 0 0 0 0 0 0 
0.018375 0.0188437 0 0 0 0 0 0 
0.018375 0.0190312 0 0 0 0 0 0 
0.018375 0.0199687 0 0 0 0 0 0 
0.018375 0.0201562 0 0 0 0 0 0 
0.018375 0.0210937 0 0 0 0 0 0 
0.018375 0.0212812 0 0 0 0 0 0 
0.019875 0.0216562 1.84602 2.3676e+21 1.57445e-05 0.209431 2.07489 0.0221957 
0.020625 0.0216562 1.96592 2.32826e+21 1.54829e-05 2.37167 2.0181 3.17634 
0.021375 0.0216562 2.05835 2.25315e+21 1.49835e-05 1.26904 -1.32789 5.88902 
0.022125 0.0216562 1.86831 2.29607e+21 1.52689e-05 -0.926034 -1.4089 -0.0753911 
0.022875 0.0216562 1.9524 2.28534e+21 1.51975e-05 -1.28258 -0.467469 1.94583 
0.023625 0.0216562 2.12951 2.21024e+21 1.46981e-05 0.750302 2.10589 0.488012 
0.00975 0.0024375 1.88154 3.38052e+21 2.24805e-05 1.29249 8.93348 2.34427 
0.01125 0.0024375 0 0 0 0 0 0 
0.01125 0.0028125 0 0 0 0 0 0 
0.028875 0.00421875 1.86648 2.3581e+21 1.56814e-05 0.888328 -2.77463 -2.99264 
0.029625 0.00421875 2.01564 2.29103e+21 1.52354e-05 2.8665 -0.71735 -1.36982 
0.028875 0.00440625 1.95 2.31427e+21 1.53899e-05 0.117566 1.12891 -3.63131 
0.029625 0.00440625 1.99123 2.34766e+21 1.56119e-05 3.05646 1.42064 0.0445148 
0.026625 0.00496875 2.00928 2.255e+21 1.49957e-05 3.45983 1.16978 0.800878 
0.027375 0.00496875 1.96209 2.39622e+21 1.59348e-05 2.79723 -0.838238 -0.144879 
0.028125 0.00496875 1.95509 2.296e+21 1.52684e-05 -0.756041 -1.96117 -1.53919 
0.028875 0.00496875 1.89688 2.31877e+21 1.54198e-05 3.33309 0.0362031 -1.74196 
0.029625 0.00496875 2.00425 2.28688e+21 1.52078e-05 -1.63602 -1.15347 -0.429446 
0.025125 0.00534375 2.08438 2.4102e+21 1.60279e-05 1.63926 -0.480619 -0.255822 
0.025875 0.00534375 2.00275 2.36784e+21 1.57462e-05 0.0737894 -2.63124 -1.76042 
0.028125 0.00534375 2.03112 2.47798e+21 1.64785e-05 4.19321 0.203408 0.585576 
0.029625 0.00534375 1.99228 2.30431e+21 1.53236e-05 -0.682554 -0.0322662 -0.638786 
0.029625 0.00553125 2.00124 2.28144e+21 1.51716e-05 2.8956 1.60306 -0.0630714 
0.028875 0.00571875 1.84212 2.43225e+21 1.61745e-05 1.03804 -0.486371 -0.345838 
0.006375 0.00121875 1.76207 5.55321e+21 3.69289e-05 44.1017 6.22354 1.04802 
0.007125 0.00121875 1.99745 4.38314e+21 2.91479e-05 37.9471 16.0349 5.3445 
0.006375 0.00140625 1.82403 5.19104e+21 3.45204e-05 32.6246 7.18933 3.80473 
0.007125 0.00140625 1.7812 3.61361e+21 2.40305e-05 32.3109 23.686 3.13745 
0.006375 0.00159375 1.99672 4.39051e+21 2.91969e-05 21.2574 10.0809 -4.03537 
0.007125 0.00159375 1.92569 3.47253e+21 2.30923e-05 21.8539 23.1679 -0.982019 
0.006375 0.00178125 1.78614 2.99025e+21 1.98852e-05 9.25465 6.45754 -0.991181 
0.007125 0.00178125 2.0029 3.45646e+21 2.29855e-05 17.5492 19.9253 0.314027 
0.007875 0.00159375 1.97773 3.71398e+21 2.46979e-05 12.4189 12.3557 1.54749 
0.008625 0.00159375 2.08078 3.856e+21 2.56424e-05 11.9772 12.8565 -4.60328 
0.007875 0.00178125 1.89196 3.49458e+21 2.3239e-05 16.7561 21.6722 0.0399684 
0.008625 0.00178125 1.88928 3.7678e+21 2.50558e-05 9.77657 16.5658 1.15916 
0.007875 0.00196875 1.90381 3.12153e+21 2.07581e-05 7.48152 22.0905 0.861461 
0.008625 0.00196875 1.98682 3.51243e+21 2.33577e-05 7.42357 15.9364 -1.59817 
0.007875 0.00215625 2.03156 3.40121e+21 2.2618e-05 10.6479 15.7936 -1.6258 
0.008625 0.00215625 2.0224 3.74238e+21 2.48868e-05 3.97215 15.6784 -1.56142 
0.007875 0.00234375 2.0414 3.38987e+21 2.25427e-05 9.19275 14.6699 1.36008 
0.008625 0.00234375 1.98676 3.3947e+21 2.25748e-05 3.35216 11.445 -0.720594 
0.007875 0.00253125 2.02847 3.20137e+21 2.12891e-05 4.0809 12.8047 2.44513 
0.008625 0.00253125 2.03877 3.52329e+21 2.34299e-05 5.3046 13.4309 0.220099 
0.006375 0.00309375 1.86302 3.16209e+21 2.10279e-05 -5.00142 5.01065 5.11317 
0.006375 0.00328125 1.89699 3.23362e+21 2.15036e-05 0.905643 2.60924 5.69463 
0.007125 0.00328125 1.97037 2.96976e+21 1.97489e-05 -3.16747 3.75815 0.244925 
0.007875 0.00346875 1.86645 3.14203e+21 2.08945e-05 -2.55798 12.585 -2.03804 
0.013875 0.00384375 1.981 2.22894e+21 1.48224e-05 -0.91936 -5.3851 -1.79642 
0.014625 0.00384375 2.01861 2.35261e+21 1.56448e-05 0.962847 1.46111 1.11949 
0.013875 0.00403125 2.09157 2.26845e+21 1.50852e-05 0.505891 -1.40818 1.80299 
0.014625 0.00403125 2.14949 2.29652e+21 1.52719e-05 -1.27166 1.55162 1.35167 
0.017625 0.00421875 1.99514 2.25348e+21 1.49856e-05 -2.49969 1.4257 -2.13846 
0.016875 0.00440625 2.03 2.39646e+21 1.59365e-05 -0.172265 -4.19359 0.0855988 
0.017625 0.00440625 1.98246 2.36307e+21 1.57144e-05 0.824984 -5.16309 -0.270396 
0.015375 0.00496875 1.98135 2.337e+21 1.5541e-05 -4.38126 -0.0478332 2.60027 
0.016125 0.00496875 1.97037 2.26183e+21 1.50412e-05 3.97812 -0.260008 -2.4714 
0.016125 0.00515625 2.02136 2.36615e+21 1.57349e-05 1.31684 -6.02492 1.07544 
0.017625 0.00496875 2.02042 2.29372e+21 1.52532e-05 3.83165 1.1755 -0.757547 
0.019875 0.00271875 2.06522 2.33535e+21 1.553e-05 3.35206 2.32278 -1.42212 
0.020625 0.00271875 2.08001 2.39779e+21 1.59453e-05 2.24731 -1.03977 2.16018 
0.019875 0.00290625 1.95147 2.43002e+21 1.61596e-05 2.84627 0.633612 -1.12849 
0.020625 0.00290625 2.04828 2.44559e+21 1.62632e-05 1.88819 -0.678272 -1.62343 
0.019875 0.00346875 2.03012 2.37855e+21 1.58174e-05 2.92389 0.781955 3.05797 
0.020625 0.00346875 1.9014 2.2252e+21 1.47976e-05 2.67967 1.10174 4.66993 
0.019875 0.00365625 2.0432 2.18538e+21 1.45328e-05 6.19247 0.88447 -1.3754 
0.020625 0.00365625 1.9389 2.34015e+21 1.5562e-05 0.11231 1.52065 0.271875 
0.018375 0.00459375 1.97644 2.26415e+21 1.50566e-05 3.14918 1.38069 4.28119 
0.019125 0.00459375 2.01663 2.29372e+21 1.52532e-05 1.03437 2.70229 -2.96798 
0.018375 0.00478125 1.94884 2.33633e+21 1.55366e-05 -0.0181108 -2.59186 -1.81665 
0.019125 0.00478125 1.97481 2.22507e+21 1.47967e-05 -1.00199 -0.886172 4.88852 
0.019875 0.00459375 2.13086 2.35285e+21 1.56464e-05 3.29744 -1.72182 -0.123593 
0.019875 0.00478125 1.99084 2.23927e+21 1.48912e-05 -0.17953 -1.03659 -0.347334 
0.018375 0.00496875 1.95191 2.33927e+21 1.55562e-05 3.85109 0.747135 5.01853 
0.019125 0.00496875 2.04824 2.38938e+21 1.58894e-05 -0.941768 1.34173 -0.942326 
0.018375 0.00515625 1.96918 2.37054e+21 1.57641e-05 1.70292 -4.52014 2.37935 
0.020625 0.00496875 1.93362 2.20488e+21 1.46625e-05 2.1671 0.981289 4.95603 
0.023625 0.00496875 2.01398 2.22311e+21 1.47837e-05 2.24916 0.60803 1.14471 
0.022875 0.00515625 1.91517 2.33323e+21 1.5516e-05 2.17786 1.21334 -2.03562 
0.018375 0.00534375 1.99563 2.37843e+21 1.58166e-05 3.43829 1.45553 2.46725 
0.021375 0.00534375 1.93059 2.33819e+21 1.5549e-05 2.13751 -1.16392 1.09132 
0.022875 0.00534375 1.99175 2.29795e+21 1.52814e-05 0.279058 -0.66616 1.63016 
0.018375 0.0154687 0 0 0 0 0 0 
0.018375 0.0156563 0 0 0 0 0 0 
0.018375 0.0158438 0 0 0 0 0 0 
0.018375 0.0160313 0 0 0 0 0 0 
0.018375 0.0173437 0 0 0 0 0 0 
0.018375 0.0175312 0 0 0 0 0 0 
0.018375 0.0177187 0 0 0 0 0 0 
0.018375 0.0179062 0 0 0 0 0 0 
0.018375 0.0184687 0 0 0 0 0 0 
0.018375 0.0186562 0 0 0 0 0 0 
0.018375 0.0192187 0 0 0 0 0 0 
0.018375 0.0194062 0 0 0 0 0 0 
0.018375 0.0195938 0 0 0 0 0 0 
0.018375 0.0197812 0 0 0 0 0 0 
0.018375 0.0203437 0 0 0 0 0 0 
0.018375 0.0205312 0 0 0 0 0 0 
0.018375 0.0207187 0 0 0 0 0 0 
0.018375 0.0209062 0 0 0 0 0 0 
0.01575 0.0009375 1.87547 2.33295e+21 1.55141e-05 0.188969 3.87456 2.94916 
0.01725 0.0009375 2.02027 2.30881e+21 1.53536e-05 -0.78883 -3.64272 -0.0717636 
0.01725 0.0013125 1.97105 2.31743e+21 1.54109e-05 3.89596 -3.42425 0.470354 
0.009375 0.00534375 2.03197 2.88618e+21 1.91931e-05 0.414378 4.16809 0.295987 
0.010125 0.00534375 0 0 0 0 0 0 
0.010125 0.00553125 0 0 0 0 0 0 
0.0279375 0.0116719 2.17273 2.44353e+21 1.62495e-05 -0.0105228 -0.655879 0.514805 
0.0283125 0.0116719 2.02082 2.26899e+21 1.50888e-05 2.82595 -0.145515 0.251281 
0.0279375 0.0117656 2.05009 2.38173e+21 1.58385e-05 -1.54398 -1.9981 0.329497 
0.0283125 0.0117656 2.12855 2.32402e+21 1.54547e-05 -3.46048 3.38936 0.936242 
0.0256875 0.0120469 1.95268 2.18709e+21 1.45441e-05 0.543035 0.304477 0.707044 
0.0260625 0.0120469 2.00488 2.20212e+21 1.46441e-05 0.575143 4.45418 -1.10105 
0.0256875 0.0121406 1.88974 2.36783e+21 1.57461e-05 -2.91421 0.137787 -3.74749 
0.0260625 0.0121406 1.86845 2.2485e+21 1.49526e-05 1.86382 -0.608892 -1.10971 
0.0264375 0.0133594 1.90753 2.26364e+21 1.50532e-05 1.89968 -0.312119 -5.45939 
0.0268125 0.0133594 1.95372 2.32464e+21 1.54589e-05 -0.987642 -2.07555 -2.23781 
0.0264375 0.0134531 2.05307 2.28825e+21 1.52169e-05 0.157491 1.51542 1.93028 
0.0268125 0.0134531 1.99249 2.34882e+21 1.56197e-05 4.3448 4.5638 -1.56293 
0.0294375 0.0129844 1.89097 2.32902e+21 1.5488e-05 -0.925253 -0.190606 -4.76846 
0.0298125 0.0129844 1.9645 2.30461e+21 1.53257e-05 -0.341098 0.356634 -4.21313 
0.0294375 0.0130781 2.02119 2.25694e+21 1.50086e-05 0.392927 0.838389 0.309206 
0.0298125 0.0130781 1.9789 2.48886e+21 1.65509e-05 -0.130964 -1.74508 0.453138 
0.0271875 0.0131719 1.99108 2.30618e+21 1.53361e-05 3.16111 0.435589 1.97323 
0.0275625 0.0131719 1.93518 2.25462e+21 1.49932e-05 1.21209 -0.3935 -1.64871 
0.0271875 0.0132656 1.94293 2.27282e+21 1.51142e-05 0.614412 -1.60592 5.16496 
0.0275625 0.0132656 1.99974 2.29329e+21 1.52504e-05 -0.946458 -0.310845 3.89305 
0.0271875 0.0133594 2.07416 2.2467e+21 1.49406e-05 1.52004 1.3398 -0.0681394 
0.0275625 0.0133594 1.90792 2.2467e+21 1.49406e-05 -2.19394 -1.00037 -4.2422 
0.0271875 0.0134531 1.98377 2.28488e+21 1.51945e-05 0.420187 1.34285 -1.16297 
0.0275625 0.0134531 1.99931 2.43295e+21 1.61791e-05 -1.35883 2.19869 0.889751 
0.0249375 0.0137344 2.02227 2.24139e+21 1.49052e-05 3.04859 -1.60179 -1.04779 
0.0253125 0.0137344 2.00552 2.28754e+21 1.52121e-05 -2.79737 -2.56757 0.593468 
0.0249375 0.0138281 1.83959 2.38334e+21 1.58492e-05 -0.318473 2.08402 3.82329 
0.0253125 0.0138281 2.01218 2.38334e+21 1.58492e-05 -2.8051 0.757536 0.340538 
0.0294375 0.0141094 2.01976 2.36792e+21 1.57466e-05 -0.140341 -1.44783 -1.49142 
0.0298125 0.0141094 1.99163 2.34225e+21 1.55759e-05 -1.40804 -1.94009 -4.14441 
0.0294375 0.0142031 2.04875 2.32041e+21 1.54307e-05 -1.19859 -0.107475 -1.58349 
0.0298125 0.0142031 2.11092 2.24073e+21 1.49008e-05 1.96306 3.543 2.38744 
0.0241875 0.0148594 1.95413 2.32761e+21 1.54786e-05 1.46273 0.197052 -2.78197 
0.0245625 0.0148594 2.02409 2.23926e+21 1.48911e-05 1.85682 2.25732 -2.28509 
0.0241875 0.0149531 1.99387 2.36751e+21 1.5744e-05 4.57712 4.7518 -0.134218 
0.0245625 0.0149531 1.96688 2.24339e+21 1.49185e-05 0.37437 2.96279 2.28361 
0.0264375 0.0148594 2.01153 2.19661e+21 1.46074e-05 0.79128 -1.9717 -0.740927 
0.0268125 0.0148594 2.0441 2.26363e+21 1.50532e-05 2.78492 0.203012 -5.02598 
0.0264375 0.0149531 1.97175 2.45531e+21 1.63278e-05 -1.48883 1.3547 -0.360813 
0.0268125 0.0149531 2.06991 2.48861e+21 1.65493e-05 -1.81135 1.56151 0.638723 
0.0286875 0.0144844 1.98855 2.50039e+21 1.66276e-05 1.74644 1.25639 -3.93114 
0.0290625 0.0144844 1.95177 2.2191e+21 1.4757e-05 1.37471 2.21299 3.88676 
0.0286875 0.0145781 1.95263 2.18309e+21 1.45175e-05 2.4765 2.46577 3.29634 
0.0290625 0.0145781 1.95155 2.33525e+21 1.55294e-05 2.19708 -1.24994 -0.0571217 
0.0256875 0.0154219 2.04461 2.29555e+21 1.52654e-05 -4.83386 0.880966 0.942047 
0.0260625 0.0154219 2.02907 2.25446e+21 1.49921e-05 1.09191 2.92737 0.119863 
0.0256875 0.0155156 2.08517 2.30794e+21 1.53478e-05 -0.744661 -0.242473 2.75474 
0.0260625 0.0155156 1.95155 2.28752e+21 1.5212e-05 -4.23195 0.113489 -0.594494 
0.0294375 0.0152344 1.99908 2.303e+21 1.5315e-05 -3.34725 2.25927 -0.813323 
0.0298125 0.0152344 1.96987 2.40701e+21 1.60066e-05 -2.24925 -0.912885 2.42165 
0.0294375 0.0153281 1.99752 2.35685e+21 1.5673e-05 4.50105 -3.2086 6.00724 
0.0298125 0.0153281 1.98867 2.51633e+21 1.67336e-05 0.21089 -4.7351 1.81955 
0.0271875 0.0154219 2.13398 2.41004e+21 1.60267e-05 -1.98328 2.62493 -0.573149 
0.0275625 0.0154219 2.01658 2.20455e+21 1.46603e-05 2.72318 1.99314 1.81117 
0.0271875 0.0155156 1.92372 2.28752e+21 1.5212e-05 3.53473 2.98474 2.7482 
0.0275625 0.0155156 2.07128 2.24667e+21 1.49403e-05 -0.47394 -1.29002 -1.15809 
0.0286875 0.0161719 1.9181 2.32906e+21 1.54882e-05 -0.160972 -3.98469 -1.51893 
0.0286875 0.0162656 1.94417 2.32398e+21 1.54545e-05 -1.16399 0.719264 -1.18438 
0.0290625 0.0162656 2.04364 2.42696e+21 1.61393e-05 1.37976 1.42935 0.798611 
0.0294375 0.0163594 1.98493 2.37431e+21 1.57892e-05 -0.795298 0.760589 3.19716 
0.0298125 0.0163594 1.89544 2.33834e+21 1.555e-05 3.24677 0.646468 1.16645 
0.0294375 0.0164531 1.90512 2.41857e+21 1.60835e-05 -3.0029 -1.6314 0.648259 
0.0298125 0.0164531 2.06391 2.2012e+21 1.4638e-05 1.72128 0.980404 0.995309 
0.0241875 0.0165469 1.97971 2.24892e+21 1.49553e-05 1.58021 1.52212 4.17913 
0.0245625 0.0165469 1.95307 2.39118e+21 1.59014e-05 -0.446955 -0.924818 -3.72511 
0.0241875 0.0166406 1.9858 2.29338e+21 1.5251e-05 2.38189 -1.11352 4.99606 
0.0245625 0.0166406 1.96356 2.33963e+21 1.55585e-05 -0.310137 -0.439171 2.73881 
0.0241875 0.0167344 1.97382 2.28323e+21 1.51835e-05 -0.0467883 0.153878 0.20144 
0.0245625 0.0167344 1.95391 2.267e+21 1.50756e-05 -4.57147 -1.88631 -1.98442 
0.0241875 0.0168281 1.99261 2.36198e+21 1.57072e-05 -2.07125 -2.23419 0.541469 
0.0245625 0.0168281 2.09007 2.40771e+21 1.60113e-05 -1.66369 0.109907 0.550034 
0.0249375 0.0171094 1.95548 2.22525e+21 1.47979e-05 -2.09486 -1.49242 -1.02691 
0.0253125 0.0172031 1.97486 2.28418e+21 1.51898e-05 -2.08985 -1.13892 -2.64665 
0.0279375 0.0167344 1.997 2.29406e+21 1.52555e-05 -1.24914 3.11525 -4.80407 
0.0279375 0.0168281 2.01736 2.41309e+21 1.60471e-05 1.92387 0.621228 1.85009 
0.0283125 0.0168281 2.04068 2.35929e+21 1.56893e-05 0.210749 0.270992 -0.527316 
0.0271875 0.0169219 1.92452 2.28736e+21 1.5211e-05 4.20782 -1.42693 -0.553433 
0.0275625 0.0169219 1.91851 2.46928e+21 1.64207e-05 -0.956675 0.897909 -2.37651 
0.0271875 0.0170156 1.94318 2.2721e+21 1.51095e-05 0.165499 0.7492 2.67895 
0.0275625 0.0170156 1.95822 2.27476e+21 1.51272e-05 -1.96268 0.404678 -1.16029 
0.0294375 0.0169219 2.0544 2.30074e+21 1.52999e-05 0.475474 3.38225 -1.38955 
0.0298125 0.0169219 1.95282 2.21246e+21 1.47128e-05 -0.762702 1.98916 0.938711 
0.0294375 0.0170156 2.02444 2.21889e+21 1.47556e-05 3.0742 0.681056 -4.87043 
0.0298125 0.0170156 1.9708 2.20027e+21 1.46318e-05 1.21795 0.720612 -2.04886 
0.0264375 0.0174844 1.93474 2.22672e+21 1.48077e-05 -2.43657 0.63467 -2.16664 
0.0268125 0.0174844 1.96226 2.24744e+21 1.49454e-05 2.90585 -4.17804 -2.37224 
0.0264375 0.0175781 2.00404 2.28438e+21 1.51911e-05 -0.114171 -1.47291 -0.943125 
0.0268125 0.0175781 2.04917 2.22257e+21 1.47801e-05 0.697791 -1.73859 -0.102532 
0.0249375 0.0176719 2.06335 2.30557e+21 1.5332e-05 -1.42018 -1.05337 -1.40321 
0.0249375 0.0177656 2.0796 2.37239e+21 1.57764e-05 1.81997 1.79534 1.83487 
0.0253125 0.0177656 1.94672 2.31124e+21 1.53697e-05 0.792749 1.00864 0.693373 
0.0249375 0.0178594 2.05002 2.42585e+21 1.61319e-05 -2.66366 -2.98673 1.45029 
0.0249375 0.0179531 2.08042 2.37535e+21 1.57961e-05 0.365178 -1.43237 -1.60192 
0.0253125 0.0179531 1.99125 2.2291e+21 1.48235e-05 4.35688 -0.654993 -4.65854 
0.0260625 0.0176719 2.02609 2.29276e+21 1.52468e-05 0.291263 1.00297 -1.77022 
0.0256875 0.0177656 2.07312 2.27556e+21 1.51325e-05 0.961774 2.09058 -0.493289 
0.0260625 0.0177656 1.91679 2.32907e+21 1.54883e-05 -1.78497 -4.53216 0.00412515 
0.0256875 0.0178594 1.9802 2.22306e+21 1.47833e-05 0.0481131 -0.650044 0.517649 
0.0260625 0.0178594 1.98132 2.3422e+21 1.55756e-05 -1.90951 -1.58718 0.86545 
0.0256875 0.0179531 2.01005 2.2871e+21 1.52092e-05 -1.6567 3.43431 0.520385 
0.0260625 0.0179531 2.04852 2.36779e+21 1.57458e-05 1.19837 2.0707 -0.385649 
0.0279375 0.0174844 1.97935 2.26815e+21 1.50832e-05 1.33256 1.07428 3.2436 
0.0283125 0.0174844 1.95984 2.3769e+21 1.58064e-05 2.43022 4.15817 0.384056 
0.0283125 0.0175781 1.99176 2.28696e+21 1.52083e-05 -2.31326 1.10387 4.18288 
0.0241875 0.0180469 2.03391 2.42071e+21 1.60977e-05 1.69303 0.957728 -0.82103 
0.0245625 0.0180469 2.01217 2.41068e+21 1.6031e-05 -2.32049 0.993716 1.16494 
0.0241875 0.0181406 1.91668 2.31087e+21 1.53673e-05 3.24671 -1.69838 -1.0532 
0.0245625 0.0181406 2.05414 2.22103e+21 1.47699e-05 1.21482 1.21396 -3.17857 
0.0268125 0.0180469 1.98032 2.31034e+21 1.53637e-05 1.61658 1.09464 1.49313 
0.0268125 0.0181406 1.99679 2.27843e+21 1.51516e-05 0.221297 4.6581 0.276395 
0.0264375 0.0182344 2.03983 2.36106e+21 1.57011e-05 2.82197 -1.78247 -0.01774 
0.0268125 0.0182344 2.01157 2.42065e+21 1.60973e-05 4.8681 2.29384 -0.577946 
0.0264375 0.0183281 1.99817 2.29217e+21 1.5243e-05 -0.732207 2.09848 -2.35561 
0.0268125 0.0183281 1.96958 2.38109e+21 1.58343e-05 -0.961093 -0.179494 0.979282 
0.0241875 0.0184219 1.9749 2.3616e+21 1.57047e-05 -0.173121 3.03312 -1.24006 
0.0245625 0.0184219 2.03279 2.23136e+21 1.48385e-05 -1.04683 2.14783 -0.900739 
0.0241875 0.0185156 1.86499 2.38388e+21 1.58528e-05 2.49791 0.966088 -1.94327 
0.0253125 0.0184219 1.95645 2.43533e+21 1.61949e-05 -1.17933 0.225577 -0.377761 
0.0249375 0.0185156 2.06119 2.32764e+21 1.54788e-05 -6.14693 2.55844 -0.980296 
0.0271875 0.0180469 1.95718 2.30281e+21 1.53137e-05 -2.06132 0.716186 0.299198 
0.0275625 0.0180469 1.99453 2.32037e+21 1.54305e-05 -0.561978 2.3045 -0.149209 
0.0275625 0.0181406 1.90714 2.43815e+21 1.62137e-05 2.36314 -4.78161 -0.439137 
0.0298125 0.0184219 1.98933 2.34686e+21 1.56066e-05 -1.31879 -1.72319 -4.23675 
0.0286875 0.0186094 2.05616 2.39619e+21 1.59347e-05 -0.0314577 -1.91911 -1.77952 
0.0290625 0.0186094 2.02519 2.41322e+21 1.60479e-05 1.05706 0.489245 -1.02199 
0.0286875 0.0187031 1.96491 2.41323e+21 1.6048e-05 -1.45946 -0.149701 1.46595 
0.0241875 0.0187969 1.99387 2.24465e+21 1.49269e-05 5.53466 1.2302 -0.772262 
0.0245625 0.0188906 1.96885 2.32457e+21 1.54584e-05 3.23788 -0.991626 -2.17549 
0.0249375 0.0189844 2.05314 2.26063e+21 1.50332e-05 -1.75261 -2.2801 -1.44511 
0.0253125 0.0189844 2.01296 2.34886e+21 1.56199e-05 -1.98959 0.41838 0.582569 
0.0249375 0.0190781 2.02855 2.32308e+21 1.54485e-05 1.47767 1.23124 0.79098 
0.0253125 0.0190781 2.0619 2.33732e+21 1.55432e-05 -3.08703 -0.0736638 3.21968 
0.0253125 0.0191719 2.02165 2.35423e+21 1.56556e-05 -0.0375096 0.288849 -0.678834 
0.0249375 0.0192656 2.00014 2.28872e+21 1.522e-05 1.8667 0.0686195 -1.24426 
0.0253125 0.0192656 1.97988 2.26288e+21 1.50481e-05 0.236619 -1.96306 1.1551 
0.0256875 0.0191719 2.07984 2.34478e+21 1.55928e-05 -0.0801715 -2.21937 1.38917 
0.0260625 0.0191719 1.96402 2.30228e+21 1.53101e-05 -0.976723 -0.0751639 0.595444 
0.0256875 0.0193594 1.98442 2.29635e+21 1.52707e-05 -1.8066 -3.48529 3.66583 
0.0264375 0.0193594 2.06311 2.32441e+21 1.54573e-05 -0.0366063 -2.83025 3.13497 
0.0268125 0.0193594 2.01286 2.24256e+21 1.49131e-05 1.98798 2.92889 0.772825 
0.0271875 0.0187969 1.94562 2.32172e+21 1.54394e-05 0.755374 0.296673 2.25936 
0.0275625 0.0187969 2.07757 2.19407e+21 1.45906e-05 -0.579621 0.829566 1.87609 
0.0271875 0.0189844 1.99705 2.32979e+21 1.54931e-05 0.57447 1.77653 0.0676613 
0.0290625 0.0187969 1.97461 2.23983e+21 1.48949e-05 -2.98824 -0.824975 1.29246 
0.0286875 0.0188906 1.97379 2.27185e+21 1.51078e-05 -3.09568 2.61666 -0.480601 
0.0290625 0.0188906 1.9898 2.20715e+21 1.46775e-05 1.66115 2.18892 2.32711 
0.0298125 0.0189844 2.23802 2.42755e+21 1.61432e-05 3.09242 2.30837 -2.0091 
0.0298125 0.0190781 2.00042 2.42749e+21 1.61428e-05 -0.736995 2.23922 2.1663 
0.0271875 0.0194531 1.9654 2.50171e+21 1.66364e-05 0.728428 2.85392 2.44296 
0.0275625 0.0194531 1.97115 2.38768e+21 1.58781e-05 3.1238 5.71591 1.66041 
0.0279375 0.0193594 2.01227 2.39456e+21 1.59238e-05 -2.12536 -1.55886 2.16127 
0.0279375 0.0194531 1.91598 2.39699e+21 1.594e-05 -1.96844 -2.02613 0.842375 
0.0283125 0.0194531 2.01314 2.18987e+21 1.45626e-05 -2.15481 0.0445683 -4.35649 