ITEM: TIMESTEP
500000
ITEM: NUMBER OF CELLS
37140
ITEM: BOX BOUNDS oo ao pp
0 0.35
0 0.03
-0.1 0.1
ITEM: CELLS xc yc f_out[1] f_out[2] f_out[3] f_out[4] f_out[5] f_out[6] 
0.00875 0.01575 0 0 0 0 0 0 
0.00875 0.01875 0 0 0 0 0 0 
0.00875 0.02175 0 0 0 0 0 0 
0.00875 0.02475 0 0 0 0 0 0 
0.00875 0.02775 0 0 0 0 0 0 
0.02625 0.02475 0 0 0 0 0 0 
0.02625 0.02775 0 0 0 0 0 0 
0.00875 0.01425 0 0 0 0 0 0 
0.00875 0.01725 0 0 0 0 0 0 
0.00875 0.02025 0 0 0 0 0 0 
0.00875 0.02325 0 0 0 0 0 0 
0.00875 0.02625 0 0 0 0 0 0 
0.00875 0.02925 0 0 0 0 0 0 
0.02625 0.02325 0 0 0 0 0 0 
0.02625 0.02625 0 0 0 0 0 0 
0.02625 0.02925 0 0 0 0 0 0 
0.04375 0.02325 0 0 0 0 0 0 
0.04375 0.02625 0 0 0 0 0 0 
0.04375 0.02925 0.173668 6.21851e+15 4.13531e-11 -102.516 24.7564 -13.7982 
0.004375 0.013125 0 0 0 0 0 0 
0.013125 0.013125 0 0 0 0 0 0 
0.021875 0.022125 0 0 0 0 0 0 
0.030625 0.022125 0 0 0 0 0 0 
0.0021875 0.0001875 1.85151 1.39411e+22 9.27084e-05 30.4024 0.196424 -1.49722 
0.0021875 0.0031875 0 0 0 0 0 0 
0.0021875 0.0035625 0 0 0 0 0 0 
0.0021875 0.0039375 0 0 0 0 0 0 
0.0021875 0.0043125 0 0 0 0 0 0 
0.0021875 0.0061875 0 0 0 0 0 0 
0.0021875 0.0065625 0 0 0 0 0 0 
0.0021875 0.0069375 0 0 0 0 0 0 
0.0021875 0.0073125 0 0 0 0 0 0 
0.0021875 0.0091875 0 0 0 0 0 0 
0.0021875 0.0095625 0 0 0 0 0 0 
0.0021875 0.0099375 0 0 0 0 0 0 
0.0021875 0.0103125 0 0 0 0 0 0 
0.0021875 0.0121875 0 0 0 0 0 0 
0.0021875 0.0125625 0 0 0 0 0 0 
0.0021875 0.0020625 0 0 0 0 0 0 
0.0021875 0.0024375 0 0 0 0 0 0 
0.0021875 0.0028125 0 0 0 0 0 0 
0.0021875 0.0046875 0 0 0 0 0 0 
0.0021875 0.0050625 0 0 0 0 0 0 
0.0021875 0.0054375 0 0 0 0 0 0 
0.0021875 0.0058125 0 0 0 0 0 0 
0.0021875 0.0076875 0 0 0 0 0 0 
0.0021875 0.0080625 0 0 0 0 0 0 
0.0021875 0.0084375 0 0 0 0 0 0 
0.0021875 0.0088125 0 0 0 0 0 0 
0.0021875 0.0106875 0 0 0 0 0 0 
0.0021875 0.0110625 0 0 0 0 0 0 
0.0021875 0.0114375 0 0 0 0 0 0 
0.0021875 0.0118125 0 0 0 0 0 0 
0.0196875 0.0001875 1.92354 2.59207e+21 1.72373e-05 7.21463 -2.64843 2.21615 
0.0240625 0.0001875 1.8674 2.3489e+21 1.56202e-05 0.59742 -1.35086 0.9495 
0.0284375 0.0001875 2.04398 2.50412e+21 1.66524e-05 3.91723 3.96392 1.7017 
0.0328125 0.0001875 2.02872 2.65416e+21 1.76502e-05 1.93564 3.45302 -0.249283 
0.00765625 0.00046875 1.86801 5.5132e+21 3.66628e-05 43.7091 3.54556 2.00165 
0.00765625 0.00065625 1.81772 5.20928e+21 3.46417e-05 44.4839 7.73249 1.17013 
0.00109375 0.00084375 0 0 0 0 0 0 
0.00109375 0.00103125 0 0 0 0 0 0 
0.00109375 0.00121875 0 0 0 0 0 0 
0.00109375 0.00140625 0 0 0 0 0 0 
0.00546875 0.00309375 1.97004 3.26659e+21 2.17229e-05 -1.12829 4.34459 -6.42041 
0.00546875 0.00328125 2.01143 3.35993e+21 2.23435e-05 -0.138916 4.14628 2.16931 
0.00546875 0.00346875 1.90091 3.15528e+21 2.09826e-05 2.69352 7.74394 3.63539 
0.00546875 0.00365625 2.15753 3.24474e+21 2.15776e-05 -3.52597 6.15611 -8.11227 
0.0120312 0.00346875 2.11926 2.44707e+21 1.6273e-05 -0.870355 0.853131 0.956185 
0.0120312 0.00365625 2.07355 2.46906e+21 1.64193e-05 3.16956 -1.64638 2.87641 
0.00546875 0.00384375 1.92162 3.36705e+21 2.23909e-05 -4.50551 -2.83549 -4.14403 
0.00546875 0.00403125 1.97988 3.39871e+21 2.26014e-05 0.382017 4.78489 -0.931887 
0.00546875 0.00421875 2.03838 3.62639e+21 2.41155e-05 -2.66275 10.2496 5.28066 
0.00546875 0.00440625 1.97649 3.45395e+21 2.29688e-05 -2.24409 4.25954 2.78274 
0.0120312 0.00384375 2.06875 2.66039e+21 1.76916e-05 2.80839 -3.5368 3.34094 
0.0120312 0.00403125 1.97798 2.39297e+21 1.59133e-05 5.21817 1.92709 8.52123 
0.0120312 0.00421875 2.03616 2.49019e+21 1.65597e-05 -0.466927 -0.890762 2.55008 
0.0120312 0.00440625 2.09133 2.43408e+21 1.61866e-05 1.30289 -2.52736 -1.45186 
0.00546875 0.00609375 1.99217 3.22508e+21 2.14468e-05 2.49633 8.22915 3.0551 
0.00546875 0.00628125 1.97627 2.96346e+21 1.9707e-05 5.2335 5.67683 4.29281 
0.00546875 0.00646875 1.96023 3.15544e+21 2.09837e-05 -3.52419 0.0744262 -2.48785 
0.00546875 0.00665625 1.97249 3.06056e+21 2.03527e-05 0.620594 4.70658 -1.88352 
0.0120312 0.00609375 2.00989 2.35654e+21 1.5671e-05 -2.86811 -4.58136 2.80093 
0.0120312 0.00628125 1.92969 2.53739e+21 1.68736e-05 0.00239087 -0.991923 -0.0256542 
0.0120312 0.00646875 2.04839 2.5966e+21 1.72674e-05 2.95346 -1.06008 -0.509411 
0.0120312 0.00665625 2.03168 2.67649e+21 1.77986e-05 -2.717 -2.17983 4.70822 
0.00546875 0.00684375 1.96415 3.16932e+21 2.1076e-05 -1.08108 5.93899 2.51002 
0.00546875 0.00703125 2.0775 3.16434e+21 2.10428e-05 4.18857 -1.03571 -4.17312 
0.00546875 0.00721875 1.83579 3.00468e+21 1.99811e-05 4.45449 8.89309 2.20969 
0.00546875 0.00740625 1.99158 3.02569e+21 2.01208e-05 0.655406 7.88323 -0.920673 
0.0120312 0.00703125 2.04608 2.50534e+21 1.66605e-05 -0.910349 -0.200207 -3.431 
0.0120312 0.00740625 2.00965 2.56456e+21 1.70543e-05 -4.19682 -2.43565 -1.59456 
0.00546875 0.00909375 1.97637 2.85077e+21 1.89576e-05 1.15548 -1.33231 -0.75444 
0.00546875 0.00928125 2.02237 2.81039e+21 1.86891e-05 0.544169 0.0804408 -0.0773114 
0.00546875 0.00946875 1.97416 2.74208e+21 1.82349e-05 -1.76382 3.85547 5.30575 
0.00546875 0.00965625 1.87741 3.01977e+21 2.00815e-05 -5.54343 3.86407 3.65244 
0.0120312 0.00928125 1.99308 2.53495e+21 1.68574e-05 0.464266 -2.2947 -1.70463 
0.00546875 0.00984375 2.15041 2.99472e+21 1.99149e-05 1.71535 3.24274 -2.31185 
0.00546875 0.0100312 1.84137 2.84715e+21 1.89336e-05 -1.84791 2.3245 1.77833 
0.00546875 0.0102187 2.03517 2.834e+21 1.88461e-05 0.259787 5.70618 1.72302 
0.00546875 0.0104062 1.88797 2.99406e+21 1.99105e-05 1.61918 0.0933786 1.73097 
0.00546875 0.0120938 2.08974 2.84382e+21 1.89114e-05 -0.281124 1.69237 0.830855 
0.00546875 0.0122813 1.99756 2.7256e+21 1.81252e-05 -1.88642 0.422956 -0.089811 
0.00546875 0.0126563 1.97778 2.88064e+21 1.91562e-05 1.0503 -1.44588 1.87246 
0.0185937 0.0216562 2.07484 2.58766e+21 1.72079e-05 -3.9567 -0.425766 -0.550156 
0.00546875 0.00178125 2.12124 3.3862e+21 2.25182e-05 0.311881 16.2486 2.47876 
0.00546875 0.00196875 1.89234 2.84052e+21 1.88894e-05 0.116413 6.4533 5.44197 
0.00546875 0.00215625 1.85518 2.66762e+21 1.77396e-05 -8.20524 5.19204 5.87349 
0.00546875 0.00234375 1.83931 3.22115e+21 2.14206e-05 -1.18386 1.75318 -2.15607 
0.00546875 0.00253125 2.03637 3.23503e+21 2.1513e-05 6.5588 8.01907 7.12235 
0.00546875 0.00271875 1.931 2.96785e+21 1.97362e-05 0.161416 6.14403 -7.35188 
0.00546875 0.00290625 1.98592 3.05127e+21 2.02909e-05 3.30702 -8.6376 -1.65553 
0.00984375 0.00271875 1.97914 3.77857e+21 2.51275e-05 1.76047 12.8336 2.48125 
0.0120312 0.00271875 2.07371 2.42423e+21 1.61212e-05 -0.553 -1.3311 -3.47675 
0.00984375 0.00290625 2.05916 3.9317e+21 2.61458e-05 -0.977261 10.7181 -1.21047 
0.0120312 0.00290625 1.98994 2.37092e+21 1.57666e-05 -0.630482 -2.07882 -6.84097 
0.00546875 0.00459375 1.99846 3.07819e+21 2.047e-05 0.323047 5.66598 -3.58448 
0.00546875 0.00478125 1.85108 3.41697e+21 2.27229e-05 2.47687 -2.36679 -0.0855262 
0.00546875 0.00496875 2.02018 3.40862e+21 2.26673e-05 0.364023 5.33278 -4.59093 
0.00546875 0.00515625 2.04714 3.26143e+21 2.16885e-05 1.35461 2.61528 -2.20767 
0.0120312 0.00459375 2.07017 2.39995e+21 1.59596e-05 -0.093042 -1.29004 -3.17401 
0.0120312 0.00478125 1.95899 2.46874e+21 1.64171e-05 0.229938 -2.29161 1.6894 
0.0120312 0.00496875 2.05422 2.43186e+21 1.61719e-05 -1.35288 0.89618 0.146504 
0.0120312 0.00515625 1.92175 2.61844e+21 1.74126e-05 3.5586 1.60542 2.20919 
0.00546875 0.00534375 1.91243 3.14699e+21 2.09275e-05 1.53804 5.28657 -0.267506 
0.00546875 0.00553125 2.0454 2.78034e+21 1.84892e-05 -2.6437 0.465835 -1.40623 
0.00546875 0.00571875 1.94417 2.98254e+21 1.98339e-05 3.5878 2.04788 -2.05079 
0.00546875 0.00590625 1.98746 3.13809e+21 2.08683e-05 1.14793 12.0518 2.36565 
0.0120312 0.00534375 1.94757 2.6798e+21 1.78207e-05 1.98114 -0.0416355 -3.79761 
0.0120312 0.00553125 1.87761 2.69729e+21 1.7937e-05 1.25713 -3.5698 3.28075 
0.0120312 0.00571875 2.07373 2.59837e+21 1.72792e-05 4.04484 -0.911266 -4.04661 
0.0120312 0.00590625 1.94873 2.5497e+21 1.69555e-05 2.04882 -2.92953 -0.315735 
0.00546875 0.00759375 1.90695 2.97728e+21 1.97989e-05 -0.912699 -3.0921 -2.13146 
0.00546875 0.00778125 1.89453 2.98254e+21 1.98339e-05 6.40617 2.23016 -2.61176 
0.00546875 0.00796875 2.1758 2.85221e+21 1.89672e-05 -3.00021 5.63259 -3.74188 
0.00546875 0.00815625 2.01227 2.8699e+21 1.90848e-05 1.02932 4.13979 -2.00387 
0.0120312 0.00759375 2.04761 2.47493e+21 1.64583e-05 -0.479 -1.66633 0.722012 
0.0120312 0.00778125 1.95863 2.42043e+21 1.60958e-05 1.22586 0.133148 -0.844673 
0.0120312 0.00796875 1.96528 2.48879e+21 1.65505e-05 -0.12633 1.93323 0.144406 
0.00546875 0.00834375 2.01531 2.72881e+21 1.81466e-05 -1.47856 2.92452 4.09881 
0.00546875 0.00853125 1.96943 3.08555e+21 2.05189e-05 -1.56374 2.06508 -0.403084 
0.00546875 0.00871875 1.93473 2.97338e+21 1.9773e-05 0.241757 2.23022 2.40467 
0.00546875 0.00890625 2.07883 3.21576e+21 2.13848e-05 -1.94503 1.85074 -1.42745 
0.0120312 0.00834375 1.91482 2.4655e+21 1.63956e-05 0.872279 3.70909 1.60374 
0.0120312 0.00853125 1.98889 2.38557e+21 1.5864e-05 2.1177 -0.767292 -2.88079 
0.00546875 0.0105937 1.95859 2.92975e+21 1.94829e-05 2.62141 6.49617 0.0578926 
0.00546875 0.0107812 2.07127 2.78618e+21 1.85281e-05 1.70941 -1.14436 -0.859126 
0.00546875 0.0109687 2.0653 2.84416e+21 1.89137e-05 -0.201578 0.348106 2.63064 
0.00546875 0.0111562 1.98541 2.92884e+21 1.94768e-05 -1.45672 0.374131 -1.06294 
0.00546875 0.0113437 1.98107 2.89803e+21 1.92719e-05 -1.49224 4.89398 -1.54142 
0.00546875 0.0115312 1.96013 2.69156e+21 1.78989e-05 -2.62472 0.863657 1.88571 
0.00546875 0.0117188 2.03731 2.90074e+21 1.92899e-05 1.62503 -4.99544 4.0224 
0.00546875 0.0119063 1.86727 2.8517e+21 1.89638e-05 0.170246 5.7933 -3.77769 
0.0207812 0.00178125 1.91639 2.48124e+21 1.65003e-05 4.11977 0.934943 0.425438 
0.0229687 0.00159375 2.01285 2.36412e+21 1.57214e-05 0.668716 1.88615 -1.71014 
0.0251562 0.00178125 1.94969 2.45075e+21 1.62975e-05 1.9867 0.604175 0.443335 
0.0426562 0.00196875 1.97892 2.48342e+21 1.65148e-05 3.26119 0.521499 2.63009 
0.0448437 0.00159375 2.01463 2.4956e+21 1.65957e-05 5.44014 -0.979047 2.72588 
0.0470312 0.00159375 1.97492 2.51264e+21 1.67091e-05 1.65411 -3.45603 0.582926 
0.0448437 0.00178125 2.04221 2.45728e+21 1.63409e-05 -0.348845 2.23379 1.42998 
0.0470312 0.00178125 1.99992 2.48342e+21 1.65148e-05 4.08589 2.76494 0.927546 
0.0492187 0.00159375 2.07637 2.39334e+21 1.59157e-05 1.49166 -1.22921 -3.32575 
0.0514062 0.00159375 1.98346 2.43229e+21 1.61748e-05 5.42917 2.49376 -0.91419 
0.0514062 0.00178125 2.12001 2.50521e+21 1.66596e-05 2.64613 -1.29426 1.15478 
0.00109375 0.00046875 0 0 0 0 0 0 
0.00328125 0.00046875 1.96118 1.33956e+22 8.90807e-05 29.2721 1.76775 1.27019 
0.00109375 0.00065625 0 0 0 0 0 0 
0.00984375 0.00309375 2.01012 3.49643e+21 2.32513e-05 0.570908 11.9527 -0.488182 
0.0120312 0.00309375 2.13826 2.479e+21 1.64853e-05 -2.93884 0.46291 2.75195 
0.0120312 0.00328125 1.99026 2.48342e+21 1.65148e-05 -0.329174 3.18308 0.382487 
0.0273437 0.00121875 2.01618 2.60441e+21 1.73193e-05 7.25008 -0.576643 1.51588 
0.0295312 0.00121875 2.02125 2.45158e+21 1.6303e-05 2.28708 1.61132 1.15576 
0.0273437 0.00140625 1.98943 2.51654e+21 1.6735e-05 -0.677045 1.27837 -0.670832 
0.0295312 0.00140625 1.96273 2.38961e+21 1.58909e-05 -1.2386 -6.95457 0.741267 
0.0142187 0.00159375 1.97401 2.30325e+21 1.53166e-05 -1.45785 -1.14375 -1.31691 
0.0273437 0.00159375 1.97781 2.49073e+21 1.65633e-05 1.75598 4.8547 -0.602164 
0.0360937 0.00159375 1.95548 2.63194e+21 1.75024e-05 -0.964676 -3.54528 -0.0278556 
0.0404687 0.00159375 1.92404 2.48342e+21 1.65148e-05 3.1545 0.485152 1.37945 
0.0426562 0.00159375 2.019 2.44203e+21 1.62395e-05 -0.648174 -1.29335 1.17438 
0.00273437 0.000796875 1.77627 1.24141e+22 8.25538e-05 25.9131 12.8646 30.4131 
0.00382812 0.000796875 1.93053 1.26411e+22 8.40634e-05 28.0093 0.0304176 0.0285341 
0.00273437 0.000890625 1.71512 1.50608e+22 0.000100155 23.73 -17.3957 4.98838 
0.00382812 0.000890625 1.96118 1.35586e+22 9.01648e-05 26.894 -6.49382 -0.76401 
0.00273437 0.000984375 2.06914 1.70331e+22 0.00011327 24.6466 -0.0878118 4.33386 
0.00382812 0.000984375 1.91392 1.33553e+22 8.88127e-05 25.7137 -4.52812 -0.575332 
0.00273437 0.00107813 1.96135 1.2286e+22 8.17021e-05 21.7457 -3.95581 6.45727 
0.00382812 0.00107813 1.9706 1.29858e+22 8.63555e-05 29.6425 -3.80475 -3.97722 
0.00492187 0.000796875 1.95396 1.07128e+22 7.12402e-05 35.7493 0.378182 -1.25785 
0.00601562 0.000796875 1.7963 9.19354e+21 6.1137e-05 45.8458 1.20771 4.20549 
0.00492187 0.000890625 1.97283 1.08574e+22 7.22014e-05 34.7346 -2.3568 -2.57808 
0.00601562 0.000890625 1.90496 9.32373e+21 6.20028e-05 47.7042 6.10821 -0.73324 
0.00492187 0.000984375 1.91204 1.07852e+22 7.17213e-05 37.3589 0.272577 2.76982 
0.00601562 0.000984375 1.82705 8.04156e+21 5.34764e-05 41.7656 3.85887 2.35463 
0.00492187 0.00107813 1.82835 1.06535e+22 7.0846e-05 32.7287 -0.877875 -2.13605 
0.00601562 0.00107813 1.89036 8.89713e+21 5.91659e-05 40.1274 -1.93785 -4.91981 
0.00273437 0.00117188 1.81674 1.45939e+22 9.70497e-05 26.5708 -7.08281 6.94322 
0.00273437 0.00126563 1.97501 1.45727e+22 9.69088e-05 23.3132 -3.57619 3.42115 
0.00273437 0.00135937 2.13433 1.35677e+22 9.02254e-05 22.8619 -5.10427 7.96858 
0.00273437 0.00145312 1.8554 1.63847e+22 0.000108958 21.2797 -17.6697 -0.501707 
0.00601562 0.00117188 1.73409 7.60259e+21 5.05572e-05 41.4128 4.75499 -0.40581 
0.00601562 0.00126563 1.86584 8.09412e+21 5.38259e-05 40.8522 3.74777 -4.78904 
0.00710937 0.00117188 1.72115 4.6887e+21 3.11799e-05 48.5117 17.0168 -1.36958 
0.00820312 0.00117188 1.9179 4.78142e+21 3.17964e-05 18.7561 16.6183 -0.793535 
0.00710937 0.00126563 1.85231 4.3046e+21 2.86256e-05 48.0983 18.8948 -0.0484855 
0.00820312 0.00126563 1.92161 4.40271e+21 2.9278e-05 28.0319 15.3513 -1.54158 
0.00492187 0.00135937 1.99348 1.09499e+22 7.28168e-05 26.0209 -1.26585 -0.175183 
0.00601562 0.00135937 1.96184 8.02688e+21 5.33788e-05 32.46 1.9583 -3.28262 
0.00492187 0.00145312 2.03715 1.04998e+22 6.98237e-05 19.5274 1.29195 1.20185 
0.00601562 0.00145312 1.9626 8.23535e+21 5.47651e-05 30.3943 8.81911 -0.779773 
0.00710937 0.00304688 2.0393 3.57104e+21 2.37474e-05 0.532308 9.04612 -0.436333 
0.00820312 0.00304688 2.12024 3.53538e+21 2.35103e-05 -0.0818665 21.2158 -2.43443 
0.00710937 0.00314063 1.97075 3.13331e+21 2.08365e-05 -4.26951 13.0011 1.05321 
0.00820312 0.00314063 2.04099 3.59788e+21 2.39259e-05 0.995864 13.097 -1.91214 
0.00710937 0.00323438 1.9427 3.32563e+21 2.21154e-05 0.0712626 8.30071 1.62966 
0.00820312 0.00323438 1.97829 3.70954e+21 2.46684e-05 -0.0152297 16.1978 2.21246 
0.00710937 0.00332813 2.00985 3.32522e+21 2.21127e-05 -0.650382 11.5006 0.117056 
0.00820312 0.00332813 1.97496 3.60504e+21 2.39735e-05 3.66544 14.057 1.26388 
0.00710937 0.00342187 2.04169 3.31123e+21 2.20197e-05 1.91393 3.27396 0.579649 
0.00820312 0.00342187 1.97592 3.3702e+21 2.24118e-05 -0.43881 11.0947 -0.217513 
0.00710937 0.00351562 2.00581 3.15229e+21 2.09627e-05 -3.50158 6.7239 1.90017 
0.00820312 0.00351562 2.01232 3.50991e+21 2.33409e-05 -1.26414 11.5917 -1.13939 
0.00710937 0.00360937 1.98149 3.51335e+21 2.33637e-05 -1.99651 11.1893 -3.00792 
0.00820312 0.00360937 1.96387 3.15642e+21 2.09902e-05 -1.75044 15.5602 1.39589 
0.00710937 0.00370312 1.93425 3.26093e+21 2.16852e-05 -2.3583 4.28399 -5.57199 
0.00820312 0.00370312 1.94051 3.68008e+21 2.44725e-05 -0.501041 8.41874 -4.29966 
0.0136719 0.00342187 1.90594 2.59455e+21 1.72538e-05 -2.63972 5.92884 -2.43528 
0.0147656 0.00342187 1.99261 2.65352e+21 1.76459e-05 -0.510464 6.59683 1.49893 
0.0136719 0.00351562 2.07321 2.58718e+21 1.72047e-05 1.93742 0.762997 3.81172 
0.0147656 0.00351562 2.03396 2.34435e+21 1.55899e-05 -0.62318 0.0333133 -0.392343 
0.00710937 0.00379687 2.04067 3.37255e+21 2.24275e-05 -2.22728 13.288 2.00832 
0.00820312 0.00379687 2.01032 3.49928e+21 2.32702e-05 2.63249 11.9016 -1.01476 
0.00710937 0.00389062 2.02027 3.33118e+21 2.21523e-05 -3.83337 9.32134 -0.834349 
0.00820312 0.00389062 1.95128 3.28729e+21 2.18605e-05 1.79773 11.8656 -3.37805 
0.00710937 0.00398438 1.94865 3.28396e+21 2.18383e-05 0.280963 8.53011 -2.22028 
0.00820312 0.00398438 2.00966 3.49432e+21 2.32372e-05 -1.95208 10.9348 2.16077 
0.00820312 0.00407813 2.01618 3.27698e+21 2.17919e-05 -0.225082 14.3315 3.87839 
0.00710937 0.00417188 1.95045 3.26286e+21 2.16981e-05 -2.20864 9.38824 -4.70232 
0.00820312 0.00417188 1.96673 3.31867e+21 2.20692e-05 -3.76415 8.37016 -2.6653 
0.00710937 0.00435938 1.93138 3.50706e+21 2.33219e-05 -0.414502 6.93915 0.540982 
0.00710937 0.00445313 1.98269 3.4158e+21 2.2715e-05 1.16306 8.34289 0.664169 
0.00820312 0.00445313 2.00598 3.47156e+21 2.30859e-05 1.00263 9.83594 2.65096 
0.0136719 0.00417188 1.99636 2.4332e+21 1.61808e-05 -0.746397 -1.21968 1.35825 
0.0147656 0.00417188 2.04526 2.54853e+21 1.69477e-05 0.222789 -0.359304 -0.811339 
0.0136719 0.00426563 2.01446 2.47433e+21 1.64543e-05 -1.42164 -0.885896 -1.47224 
0.0147656 0.00426563 2.08426 2.55074e+21 1.69624e-05 2.34995 -3.38731 -1.5242 
0.0158594 0.00435938 2.03481 2.44604e+21 1.62662e-05 -1.89807 1.28218 0.167244 
0.0169531 0.00435938 1.97173 2.2965e+21 1.52717e-05 1.65823 0.673671 1.44763 
0.0158594 0.00445313 2.06714 2.58973e+21 1.72217e-05 -3.42886 0.890422 -0.266976 
0.0169531 0.00445313 1.82761 2.52002e+21 1.67581e-05 0.779895 3.31717 -1.25935 
0.0147656 0.00604688 1.93123 2.44107e+21 1.62331e-05 -3.3614 -2.68439 0.0446401 
0.0136719 0.00614063 1.92097 2.48721e+21 1.654e-05 -2.35103 -4.27337 -3.77278 
0.0147656 0.00614063 2.08369 2.32797e+21 1.5481e-05 -4.29208 1.12029 0.98876 
0.0136719 0.00623438 1.99676 2.49214e+21 1.65727e-05 -2.72979 -2.41077 2.00981 
0.0147656 0.00632813 1.97788 2.44541e+21 1.62619e-05 -1.6637 -1.80038 -4.35923 
0.0158594 0.00623438 1.91892 2.44234e+21 1.62416e-05 4.31168 2.89789 0.840894 
0.0169531 0.00623438 1.93294 2.30292e+21 1.53144e-05 0.970389 -2.02624 3.10963 
0.0158594 0.00632813 1.88702 2.47729e+21 1.6474e-05 -2.8513 0.44833 -2.31772 
0.0136719 0.00642188 1.98621 2.4653e+21 1.63942e-05 -3.21224 1.56879 1.36749 
0.0147656 0.00642188 2.07235 2.58856e+21 1.72139e-05 -0.233215 -1.09634 1.69158 
0.0136719 0.00651563 2.05629 2.52988e+21 1.68237e-05 3.60086 -1.3467 -2.78156 
0.0158594 0.00642188 2.01287 2.54264e+21 1.69085e-05 1.74342 0.621696 0.326913 
0.0169531 0.00642188 2.07471 2.44596e+21 1.62656e-05 3.11896 0.526334 4.23902 
0.0147656 0.00660938 1.94435 2.36953e+21 1.57574e-05 0.221014 -7.704 -0.785321 
0.0147656 0.00670313 1.99778 2.41511e+21 1.60605e-05 1.06685 1.40253 -0.833995 
0.0147656 0.00679687 1.93227 2.48913e+21 1.65527e-05 -0.715225 0.244085 -0.725106 
0.0147656 0.00689062 1.98272 2.52059e+21 1.67619e-05 1.27459 -2.32689 2.81561 
0.0158594 0.00679687 1.92099 2.5074e+21 1.66742e-05 6.94445 -1.07688 0.883401 
0.0169531 0.00679687 1.98335 2.40692e+21 1.6006e-05 3.46637 -0.640822 0.830027 
0.0158594 0.00689062 2.04751 2.63547e+21 1.75259e-05 3.37988 -0.429171 2.7898 
0.0147656 0.00698437 1.95118 2.60676e+21 1.7335e-05 -1.54806 0.722736 0.656961 
0.0158594 0.00698437 2.01065 2.51342e+21 1.67143e-05 2.91073 2.0901 0.718061 
0.0169531 0.00735937 1.96752 2.52244e+21 1.67742e-05 1.6915 -4.18447 -0.236242 
0.0103906 0.00904687 0 0 0 0 0 0 
0.0103906 0.00914062 0 0 0 0 0 0 
0.0103906 0.00942187 0 0 0 0 0 0 
0.0103906 0.00951562 2.015 2.85161e+21 1.89632e-05 0.991818 -0.572671 -0.597447 
0.00710937 0.0127031 1.97834 3.02743e+21 2.01324e-05 0.817848 -2.7411 1.50745 
0.0114844 0.0127031 2.02735 2.82018e+21 1.87542e-05 2.71034 2.0959 1.02483 
0.0136719 0.0127031 2.00303 2.59719e+21 1.72713e-05 2.32663 -1.50994 -3.66967 
0.0158594 0.0127031 2.01528 2.54997e+21 1.69573e-05 0.0624314 1.5447 -1.99847 
0.0169531 0.0127031 2.00408 2.38732e+21 1.58757e-05 1.46401 2.58746 -1.82636 
0.0289844 0.00398438 2.05828 2.44642e+21 1.62687e-05 0.140483 4.29173 0.704831 
0.0300781 0.00398438 2.22951 2.46979e+21 1.64241e-05 2.04855 -0.281237 1.5862 
0.0289844 0.00407813 2.00853 2.63757e+21 1.75398e-05 6.32636 2.9453 -0.678168 
0.0300781 0.00407813 1.96453 2.45488e+21 1.63249e-05 -0.843136 -4.55992 -0.161083 
0.0311719 0.00379687 2.00355 2.51e+21 1.66915e-05 4.16107 0.424855 -3.73633 
0.0322656 0.00379687 2.00917 2.46094e+21 1.63652e-05 3.50923 0.487146 -2.69319 
0.0311719 0.00389062 1.98819 2.49739e+21 1.66076e-05 -2.00221 2.33116 -5.02161 
0.0322656 0.00389062 2.05485 2.41361e+21 1.60505e-05 2.59752 -7.34105 3.51752 
0.0180469 0.00604688 2.06251 2.4154e+21 1.60624e-05 5.55632 1.49467 -0.399332 
0.0191406 0.00604688 2.02763 2.3461e+21 1.56015e-05 1.81096 1.17484 0.00693459 
0.0180469 0.00614063 1.91963 2.41139e+21 1.60357e-05 0.247289 3.16543 1.75769 
0.0202344 0.00623438 1.98743 2.4299e+21 1.61588e-05 2.84352 1.77628 2.10275 
0.0213281 0.00623438 1.95133 2.41745e+21 1.6076e-05 1.35726 2.50969 0.286715 
0.0202344 0.00632813 2.08571 2.51163e+21 1.67023e-05 3.1921 -3.40562 1.34141 
0.0213281 0.00632813 1.95068 2.49446e+21 1.65882e-05 4.48728 -1.6446 0.521689 
0.0224219 0.00614063 1.9935 2.36336e+21 1.57163e-05 2.94577 2.84477 -1.28987 
0.0235156 0.00614063 2.10428 2.47205e+21 1.64391e-05 3.84325 0.088083 3.2275 
0.0257031 0.00604688 2.05403 2.48214e+21 1.65062e-05 1.96753 -0.541804 -0.12866 
0.0257031 0.00614063 1.87527 2.38864e+21 1.58844e-05 1.66353 1.43285 -1.3408 
0.0224219 0.00623438 1.94662 2.66392e+21 1.77151e-05 -0.605316 -1.47788 -0.935492 
0.0235156 0.00623438 2.0185 2.37014e+21 1.57615e-05 -0.297594 2.27007 0.159205 
0.0224219 0.00632813 1.94317 2.37673e+21 1.58052e-05 0.130002 0.355761 0.0343841 
0.0235156 0.00632813 2.12927 2.49201e+21 1.65719e-05 2.4611 -1.29489 -0.644806 
0.0246094 0.00623438 2.03468 2.42741e+21 1.61423e-05 5.78658 5.02276 -2.3937 
0.0257031 0.00632813 1.99272 2.45522e+21 1.63272e-05 -1.97191 2.93928 0.564166 
0.0180469 0.00642188 1.93263 2.54022e+21 1.68925e-05 2.72634 -0.446964 -2.56744 
0.0191406 0.00642188 1.9767 2.42421e+21 1.6121e-05 0.291004 0.0180398 0.724279 
0.0191406 0.00651563 1.96637 2.42982e+21 1.61583e-05 2.56151 1.04253 1.07932 
0.0202344 0.00642188 1.98211 2.46288e+21 1.63781e-05 4.18762 0.358325 -1.35987 
0.0202344 0.00651563 1.95412 2.49653e+21 1.66019e-05 0.472505 -0.461057 -2.00188 
0.0180469 0.00660938 2.00299 2.49869e+21 1.66163e-05 0.411149 -1.91824 -1.28656 
0.0191406 0.00660938 1.98355 2.36248e+21 1.57105e-05 -0.42873 -2.14723 1.65531 
0.0224219 0.00642188 1.96033 2.50638e+21 1.66675e-05 2.05848 1.71025 1.74592 
0.0224219 0.00651563 2.05651 2.4203e+21 1.6095e-05 4.98487 0.434188 0.652984 
0.0257031 0.00642188 1.96677 2.42421e+21 1.6121e-05 2.31254 2.10538 -1.10477 
0.0224219 0.00660938 1.98961 2.36483e+21 1.57261e-05 5.47644 -0.212947 -1.8334 
0.0235156 0.00660938 2.01116 2.50104e+21 1.66319e-05 0.671789 0.0476063 0.0753111 
0.0246094 0.00660938 2.01424 2.39536e+21 1.59291e-05 2.83005 2.2127 0.744198 
0.0278906 0.00604688 1.91696 2.4462e+21 1.62673e-05 3.38974 1.18725 -0.0970986 
0.0278906 0.00614063 1.9801 2.58074e+21 1.71619e-05 1.34974 1.61979 3.03357 
0.0289844 0.00604688 1.97072 2.49754e+21 1.66086e-05 -2.28557 2.1111 1.51464 
0.0300781 0.00604688 1.90381 2.51038e+21 1.6694e-05 2.36563 -3.56033 0.750734 
0.0300781 0.00614063 2.00268 2.46952e+21 1.64223e-05 1.62859 -4.24307 1.39364 
0.0267969 0.00623438 2.04251 2.52948e+21 1.68211e-05 1.07611 -0.970209 1.36405 
0.0267969 0.00632813 1.95814 2.36201e+21 1.57074e-05 1.79353 -0.763317 0.458039 
0.0278906 0.00632813 2.06971 2.53125e+21 1.68328e-05 3.50225 -3.04095 -1.02603 
0.0333594 0.00604688 1.98672 2.35123e+21 1.56357e-05 1.30351 -2.31967 -6.32958 
0.0344531 0.00604688 2.00652 2.51038e+21 1.6694e-05 5.19908 -0.96589 -3.28643 
0.0344531 0.00614063 1.94149 2.4948e+21 1.65904e-05 3.78021 0.48834 -1.08452 
0.0278906 0.00670313 1.93481 2.41743e+21 1.60759e-05 1.34465 -0.159766 -3.87287 
0.0289844 0.00660938 2.04564 2.44233e+21 1.62415e-05 -1.74872 -0.513506 -1.68499 
0.0300781 0.00660938 1.99062 2.49869e+21 1.66163e-05 -1.16356 -0.214666 2.09835 
0.0311719 0.00642188 1.95995 2.31303e+21 1.53816e-05 2.92992 -3.57583 3.61685 
0.0311719 0.00651563 1.95394 2.5132e+21 1.67128e-05 1.26007 2.60773 -0.367734 
0.0322656 0.00670313 1.92013 2.49847e+21 1.66149e-05 -0.370975 2.92943 1.62145 
0.0191406 0.00679687 1.96255 2.52339e+21 1.67805e-05 1.75834 -2.37836 -2.12123 
0.0191406 0.00689062 2.02759 2.45527e+21 1.63275e-05 1.4414 -1.85739 -2.53456 
0.0180469 0.00698437 2.04662 2.59121e+21 1.72315e-05 -0.218056 -2.93548 0.623817 
0.0191406 0.00707812 1.90677 2.45382e+21 1.63179e-05 3.09179 -2.79816 1.11721 
0.0246094 0.00679687 1.9983 2.55307e+21 1.69779e-05 2.28842 3.87578 -2.68348 
0.0257031 0.00689062 1.96685 2.29534e+21 1.5264e-05 2.61997 5.21475 -2.73982 
0.0235156 0.00707812 1.98604 2.40777e+21 1.60117e-05 3.31211 -0.191948 0.437975 
0.0180469 0.00735937 1.96477 2.44862e+21 1.62833e-05 1.04591 -0.195184 0.577075 
0.0191406 0.00745312 1.97973 2.4678e+21 1.64109e-05 2.68194 -2.23009 1.15409 
0.0278906 0.00679687 1.94895 2.52567e+21 1.67957e-05 2.30148 1.00862 1.42557 
0.0278906 0.00689062 2.08867 2.3967e+21 1.59381e-05 3.21388 -1.80454 2.72577 
0.0289844 0.00679687 1.97768 2.33613e+21 1.55353e-05 2.79914 1.27225 -2.75349 
0.0311719 0.00689062 1.9471 2.55213e+21 1.69716e-05 4.75454 -2.43358 3.33171 
0.0333594 0.00679687 1.97835 2.3955e+21 1.59301e-05 -1.81043 0.86241 -2.37182 
0.0344531 0.00679687 1.99114 2.40464e+21 1.59908e-05 3.42401 -1.03647 -0.386818 
0.0333594 0.00726562 2.00649 2.43963e+21 1.62235e-05 0.822713 1.27908 -1.32291 
0.0180469 0.0127031 2.03666 2.46077e+21 1.63642e-05 -0.327093 4.31114 -1.75391 
0.0180469 0.0184219 0 0 0 0 0 0 
0.0180469 0.0185156 0 0 0 0 0 0 
0.0180469 0.0189844 0 0 0 0 0 0 
0.0180469 0.0190781 0 0 0 0 0 0 
0.0180469 0.0210469 0 0 0 0 0 0 
0.0180469 0.0211406 0 0 0 0 0 0 
0.0180469 0.0214219 0 0 0 0 0 0 
0.0180469 0.0215156 0 0 0 0 0 0 
0.00601562 0.00154688 1.97178 7.78368e+21 5.17615e-05 21.127 5.16068 -0.155612 
0.00492187 0.00164063 0 0 0 0 0 0 
0.00601562 0.00164063 1.58211 4.13904e+21 2.75246e-05 30.2037 26.3216 -9.83212 
0.00710937 0.00173438 1.8235 3.66025e+21 2.43407e-05 24.2542 23.0981 -4.21058 
0.00820312 0.00173438 1.98948 3.7408e+21 2.48763e-05 11.4181 18.8238 2.58839 
0.00710937 0.00182813 2.06898 3.70179e+21 2.46169e-05 10.8821 21.0308 3.27827 
0.00820312 0.00182813 2.05431 3.99046e+21 2.65365e-05 14.9721 15.2518 -1.40976 
0.00710937 0.00229688 1.9194 3.35178e+21 2.22893e-05 0.56294 14.9715 0.595588 
0.00820312 0.00229688 1.92206 3.60857e+21 2.3997e-05 8.60656 15.5078 0.242406 
0.00710937 0.00239063 1.94732 3.48653e+21 2.31854e-05 3.20533 8.77813 -1.89556 
0.00820312 0.00239063 1.98496 3.83064e+21 2.54738e-05 4.14405 15.9332 -2.16533 
0.00710937 0.00248438 1.98048 3.35496e+21 2.23105e-05 -1.4415 13.7924 -4.29607 
0.00820312 0.00248438 2.13858 3.94224e+21 2.62159e-05 0.820902 19.3642 -1.7038 
0.00710937 0.00257813 1.99283 3.40756e+21 2.26603e-05 -2.75462 15.1434 3.63498 
0.00820312 0.00257813 1.9315 3.55205e+21 2.36211e-05 4.87761 18.8796 -2.16524 
0.00710937 0.00285937 1.9426 3.43608e+21 2.28499e-05 0.16534 6.61152 -1.45577 
0.00820312 0.00285937 1.90135 3.62607e+21 2.41134e-05 -3.97802 12.6425 -2.44752 
0.00710937 0.00295313 1.98789 3.16932e+21 2.1076e-05 -5.36166 9.12089 -3.18505 
0.00820312 0.00295313 1.95993 3.84208e+21 2.55498e-05 0.979511 16.9052 0.301102 
0.00710937 0.00454687 1.94718 3.36244e+21 2.23602e-05 -1.01893 6.98154 0.29424 
0.00820312 0.00454687 1.87992 3.34195e+21 2.2224e-05 0.789478 13.9531 -2.55718 
0.00710937 0.00492187 2.00801 3.25447e+21 2.16422e-05 -1.79367 5.24022 -0.75265 
0.00820312 0.00501562 2.02294 3.23387e+21 2.15052e-05 -3.63506 13.5375 -2.31283 
0.00820312 0.00520312 1.97821 3.19489e+21 2.1246e-05 -0.713627 9.5478 -2.29982 
0.0136719 0.00454687 2.02165 2.58071e+21 1.71617e-05 2.68842 -2.58864 -1.61464 
0.0147656 0.00454687 1.93887 2.42027e+21 1.60948e-05 -1.26716 1.80104 1.02983 
0.0147656 0.00464062 2.08816 2.46168e+21 1.63702e-05 -2.5845 3.42668 3.91804 
0.0158594 0.00473437 1.96004 2.53096e+21 1.68309e-05 0.00971937 3.37228 -1.46847 
0.0169531 0.00473437 1.92561 2.50473e+21 1.66565e-05 -0.209822 -0.0769272 3.00553 
0.0158594 0.00482812 2.01036 2.41752e+21 1.60765e-05 1.40111 -6.56619 1.28796 
0.0169531 0.00482812 1.90909 2.56219e+21 1.70385e-05 3.29892 1.38104 -2.89298 
0.0136719 0.00492187 1.96314 2.444e+21 1.62526e-05 1.68612 0.229432 2.1901 
0.0147656 0.00492187 2.02242 2.34624e+21 1.56025e-05 0.910907 -0.941591 2.36492 
0.0136719 0.00501562 1.97114 2.43236e+21 1.61752e-05 -0.0777036 -4.39583 -1.88784 
0.0147656 0.00501562 2.00725 2.44165e+21 1.62369e-05 -4.74058 -2.26186 0.348958 
0.0158594 0.00492187 2.00103 2.37147e+21 1.57703e-05 1.08356 -2.9701 2.04724 
0.0169531 0.00492187 1.97749 2.4377e+21 1.62107e-05 -1.43842 -2.32734 0.457307 
0.0169531 0.00501562 2.03721 2.57781e+21 1.71424e-05 -0.466883 4.10209 0.226976 
0.00820312 0.00548437 2.02613 3.21501e+21 2.13798e-05 1.21427 10.9862 -0.609247 
0.0136719 0.00529687 1.98408 2.48196e+21 1.6505e-05 1.37317 3.193 0.409177 
0.0147656 0.00529687 1.92457 2.47024e+21 1.64271e-05 -2.09359 1.11838 1.30645 
0.0136719 0.00539062 1.98033 2.56548e+21 1.70605e-05 2.84092 0.398872 -0.477454 
0.0147656 0.00539062 1.95132 2.43591e+21 1.61988e-05 -0.369005 -1.18093 -0.57771 
0.0158594 0.00529687 2.0232 2.438e+21 1.62127e-05 3.46872 -0.97817 -3.063 
0.0169531 0.00529687 2.12175 2.35889e+21 1.56866e-05 1.1303 0.708739 3.18386 
0.0158594 0.00539062 1.93403 2.47047e+21 1.64286e-05 0.449124 -3.11285 1.77096 
0.0169531 0.00539062 2.04597 2.44455e+21 1.62563e-05 5.37811 -2.9564 -4.78739 
0.0136719 0.00548437 2.09727 2.43956e+21 1.62231e-05 0.160998 -0.999235 2.43573 
0.0147656 0.00548437 1.96077 2.42541e+21 1.6129e-05 3.50628 -3.544 1.1624 
0.0136719 0.00557812 1.88544 2.54881e+21 1.69496e-05 2.37829 -1.97332 0.384227 
0.00929687 0.00585938 2.09972 3.00505e+21 1.99836e-05 -6.12916 5.54255 -3.50409 
0.0103906 0.00585938 0 0 0 0 0 0 
0.00929687 0.00595313 1.94251 3.01988e+21 2.00822e-05 -1.11871 6.73338 -2.24387 
0.0103906 0.00595313 0 0 0 0 0 0 
0.0136719 0.00585938 2.00662 2.56157e+21 1.70344e-05 -0.475171 3.96104 -0.682501 
0.0158594 0.00585938 1.9713 2.46621e+21 1.64003e-05 0.395821 -0.248039 1.95554 