ITEM: TIMESTEP
510000
ITEM: NUMBER OF SURFS
78
ITEM: BOX BOUNDS oo ao pp
0 0.35
0 0.03
-0.1 0.1
ITEM: SURFS id v1x v1y v2x v2y 
1 0.00635 0.00159 0.00318 0.00159 
17 0.17909 0.0127 0.16909 0.0127 
33 0.08909 0.0147 0.09509 0.0147 
49 0.12909 0.0147 0.13509 0.0147 
65 0.17969 0.00084 0.18019 0.00084 
2 0.00635 0.0127 0.00635 0.00159 
18 0.17909 0.0045 0.17909 0.0127 
34 0.08909 0.0127 0.08909 0.0147 
50 0.12909 0.0127 0.12909 0.0147 
66 0.17969 0.00036 0.17969 0.00084 
3 0.01905 0.0127 0.00635 0.0127 
19 0.17969 0.0045 0.17909 0.0045 
35 0.10509 0.0127 0.09909 0.0127 
51 0.14509 0.0127 0.13909 0.0127 
67 0.18019 0.00157 0.17969 0.00157 
4 0.01905 0.02159 0.01905 0.0127 
20 0.17969 0.02223 0.17969 0.0045 
36 0.10509 0.0147 0.10509 0.0127 
52 0.14509 0.0147 0.14509 0.0127 
68 0.18019 0.00205 0.18019 0.00157 
5 0.0635 0.02159 0.01905 0.02159 
21 0.16909 0.02223 0.17969 0.02223 
37 0.09909 0.0147 0.10509 0.0147 
53 0.13909 0.0147 0.14509 0.0147 
69 0.17969 0.00205 0.18019 0.00205 
6 0.0635 0.0035 0.0635 0.02159 
22 0.16909 0.0127 0.16909 0.02223 
38 0.09909 0.0127 0.09909 0.0147 
54 0.13909 0.0127 0.13909 0.0147 
70 0.17969 0.00157 0.17969 0.00205 
7 0.06509 0.0035 0.0635 0.0035 
23 0.07509 0.0127 0.06909 0.0127 
39 0.11509 0.0127 0.10909 0.0127 
55 0.15509 0.0127 0.14909 0.0127 
71 0.18019 0.00278 0.17969 0.00278 
8 0.06509 0.0254 0.06509 0.0035 
24 0.07509 0.0147 0.07509 0.0127 
40 0.11509 0.0147 0.11509 0.0127 
56 0.15509 0.0147 0.15509 0.0127 
72 0.18019 0.00326 0.18019 0.00278 
9 0 0.0254 0.06509 0.0254 
25 0.06909 0.0147 0.07509 0.0147 
41 0.10909 0.0147 0.11509 0.0147 
57 0.14909 0.0147 0.15509 0.0147 
73 0.17969 0.00326 0.18019 0.00326 
10 0 0 0 0.0254 
26 0.06909 0.0127 0.06909 0.0147 
42 0.10909 0.0127 0.10909 0.0147 
58 0.14909 0.0127 0.14909 0.0147 
74 0.17969 0.00278 0.17969 0.00326 
11 0.00318 0 0 0 
27 0.08509 0.0127 0.07909 0.0127 
43 0.12509 0.0127 0.11909 0.0127 
59 0.16509 0.0127 0.15909 0.0127 
75 0.18019 0.00399 0.17969 0.00399 
12 0.00318 0.00159 0.00318 0 
28 0.08509 0.0147 0.08509 0.0127 
44 0.12509 0.0147 0.12509 0.0127 
60 0.16509 0.0147 0.16509 0.0127 
76 0.18019 0.00447 0.18019 0.00399 
13 0.00953 0 0.00953 0.00953 
29 0.07909 0.0147 0.08509 0.0147 
45 0.11909 0.0147 0.12509 0.0147 
61 0.15909 0.0147 0.16509 0.0147 
77 0.17969 0.00447 0.18019 0.00447 
14 0.00953 0.00953 0.0127 0.00953 
30 0.07909 0.0127 0.07909 0.0147 
46 0.11909 0.0127 0.11909 0.0147 
62 0.15909 0.0127 0.15909 0.0147 
78 0.17969 0.00399 0.17969 0.00447 
15 0.0127 0.00953 0.0127 0 
31 0.09509 0.0127 0.08909 0.0127 
47 0.13509 0.0127 0.12909 0.0127 
63 0.18019 0.00036 0.17969 0.00036 
16 0.0127 0 0.00953 0 
32 0.09509 0.0147 0.09509 0.0127 
48 0.13509 0.0147 0.13509 0.0127 
64 0.18019 0.00084 0.18019 0.00036 
