ITEM: TIMESTEP
510001
ITEM: NUMBER OF SURFS
78
ITEM: BOX BOUNDS oo ao pp
0 0.35
0 0.03
-0.1 0.1
ITEM: SURFS id v1x v1y v2x v2y 
1 0.00635 0.00159 0.00318 0.00159 
2 0.00635 0.0127 0.00635 0.00159 
3 0.01905 0.0127 0.00635 0.0127 
4 0.01905 0.02159 0.01905 0.0127 
5 0.0635 0.02159 0.01905 0.02159 
6 0.0635 0.0035 0.0635 0.02159 
7 0.06509 0.0035 0.0635 0.0035 
8 0.06509 0.0254 0.06509 0.0035 
9 0 0.0254 0.06509 0.0254 
10 0 0 0 0.0254 
11 0.00318 0 0 0 
12 0.00318 0.00159 0.00318 0 
13 0.00953 0 0.00953 0.00953 
14 0.00953 0.00953 0.0127 0.00953 
15 0.0127 0.00953 0.0127 0 
16 0.0127 0 0.00953 0 
17 0.17909 0.0127 0.16909 0.0127 
18 0.17909 0.0045 0.17909 0.0127 
19 0.17969 0.0045 0.17909 0.0045 
20 0.17969 0.02223 0.17969 0.0045 
21 0.16909 0.02223 0.17969 0.02223 
22 0.16909 0.0127 0.16909 0.02223 
23 0.07509 0.0127 0.06909 0.0127 
24 0.07509 0.0147 0.07509 0.0127 
25 0.06909 0.0147 0.07509 0.0147 
26 0.06909 0.0127 0.06909 0.0147 
27 0.08509 0.0127 0.07909 0.0127 
28 0.08509 0.0147 0.08509 0.0127 
29 0.07909 0.0147 0.08509 0.0147 
30 0.07909 0.0127 0.07909 0.0147 
31 0.09509 0.0127 0.08909 0.0127 
32 0.09509 0.0147 0.09509 0.0127 
33 0.08909 0.0147 0.09509 0.0147 
34 0.08909 0.0127 0.08909 0.0147 
35 0.10509 0.0127 0.09909 0.0127 
36 0.10509 0.0147 0.10509 0.0127 
37 0.09909 0.0147 0.10509 0.0147 
38 0.09909 0.0127 0.09909 0.0147 
39 0.11509 0.0127 0.10909 0.0127 
40 0.11509 0.0147 0.11509 0.0127 
41 0.10909 0.0147 0.11509 0.0147 
42 0.10909 0.0127 0.10909 0.0147 
43 0.12509 0.0127 0.11909 0.0127 
44 0.12509 0.0147 0.12509 0.0127 
45 0.11909 0.0147 0.12509 0.0147 
46 0.11909 0.0127 0.11909 0.0147 
47 0.13509 0.0127 0.12909 0.0127 
48 0.13509 0.0147 0.13509 0.0127 
49 0.12909 0.0147 0.13509 0.0147 
50 0.12909 0.0127 0.12909 0.0147 
51 0.14509 0.0127 0.13909 0.0127 
52 0.14509 0.0147 0.14509 0.0127 
53 0.13909 0.0147 0.14509 0.0147 
54 0.13909 0.0127 0.13909 0.0147 
55 0.15509 0.0127 0.14909 0.0127 
56 0.15509 0.0147 0.15509 0.0127 
57 0.14909 0.0147 0.15509 0.0147 
58 0.14909 0.0127 0.14909 0.0147 
59 0.16509 0.0127 0.15909 0.0127 
60 0.16509 0.0147 0.16509 0.0127 
61 0.15909 0.0147 0.16509 0.0147 
62 0.15909 0.0127 0.15909 0.0147 
63 0.18019 0.00036 0.17969 0.00036 
64 0.18019 0.00084 0.18019 0.00036 
65 0.17969 0.00084 0.18019 0.00084 
66 0.17969 0.00036 0.17969 0.00084 
67 0.18019 0.00157 0.17969 0.00157 
68 0.18019 0.00205 0.18019 0.00157 
69 0.17969 0.00205 0.18019 0.00205 
70 0.17969 0.00157 0.17969 0.00205 
71 0.18019 0.00278 0.17969 0.00278 
72 0.18019 0.00326 0.18019 0.00278 
73 0.17969 0.00326 0.18019 0.00326 
74 0.17969 0.00278 0.17969 0.00326 
75 0.18019 0.00399 0.17969 0.00399 
76 0.18019 0.00447 0.18019 0.00399 
77 0.17969 0.00447 0.18019 0.00447 
78 0.17969 0.00399 0.17969 0.00447 
