ITEM: TIMESTEP
2600000
ITEM: NUMBER OF SURFS
50
ITEM: BOX BOUNDS oo ao pp
0 0.35
0 0.03
-0.1 0.1
ITEM: SURFS id v1x v1y v2x v2y 
1 0.00635 0.00159 0.00318 0.00159 
25 0.08669 0.00052 0.08711 0.00052 
49 0.08669 0.00427 0.08711 0.00427 
2 0.00635 0.0127 0.00635 0.00159 
26 0.08669 0.0001 0.08669 0.00052 
50 0.08669 0.00384 0.08669 0.00427 
3 0.01905 0.0127 0.00635 0.0127 
27 0.08711 0.00072 0.08669 0.00072 
4 0.01905 0.02159 0.01905 0.0127 
28 0.08711 0.00115 0.08711 0.00072 
5 0.0635 0.02159 0.01905 0.02159 
29 0.08669 0.00115 0.08711 0.00115 
6 0.0635 0.0035 0.0635 0.02159 
30 0.08669 0.00072 0.08669 0.00115 
7 0.06509 0.0035 0.0635 0.0035 
31 0.08711 0.00135 0.08669 0.00135 
8 0.06509 0.0254 0.06509 0.0035 
32 0.08711 0.00177 0.08711 0.00135 
9 0 0.0254 0.06509 0.0254 
33 0.08669 0.00177 0.08711 0.00177 
10 0 0 0 0.0254 
34 0.08669 0.00135 0.08669 0.00177 
11 0.00318 0 0 0 
35 0.08711 0.00197 0.08669 0.00197 
12 0.00318 0.00159 0.00318 0 
36 0.08711 0.0024 0.08711 0.00197 
13 0.00953 0 0.00953 0.00953 
37 0.08669 0.0024 0.08711 0.0024 
14 0.00953 0.00953 0.0127 0.00953 
38 0.08669 0.00197 0.08669 0.0024 
15 0.0127 0.00953 0.0127 0 
39 0.08711 0.0026 0.08669 0.0026 
16 0.0127 0 0.00953 0 
40 0.08711 0.00302 0.08711 0.0026 
17 0.08609 0.0127 0.06609 0.0127 
41 0.08669 0.00302 0.08711 0.00302 
18 0.08609 0.0045 0.08609 0.0127 
42 0.08669 0.0026 0.08669 0.00302 
19 0.08669 0.0045 0.08609 0.0045 
43 0.08711 0.00322 0.08669 0.00322 
20 0.08669 0.02223 0.08669 0.0045 
44 0.08711 0.00364 0.08711 0.00322 
21 0.06609 0.02223 0.08669 0.02223 
45 0.08669 0.00364 0.08711 0.00364 
22 0.06609 0.0127 0.06609 0.02223 
46 0.08669 0.00322 0.08669 0.00364 
23 0.08711 0.0001 0.08669 0.0001 
47 0.08711 0.00384 0.08669 0.00384 
24 0.08711 0.00052 0.08711 0.0001 
48 0.08711 0.00427 0.08711 0.00384 
