ITEM: TIMESTEP
500000
ITEM: NUMBER OF CELLS
13006
ITEM: BOX BOUNDS oo ao pp
0 0.12
0 0.03
-0.1 0.1
ITEM: CELLS xc yc f_out[1] f_out[2] f_out[3] f_out[4] f_out[5] f_out[6] 
0.003 0.00675 0 0 0 0 0 0 
0.003 0.01275 0 0 0 0 0 0 
0.009 0.00675 0 0 0 0 0 0 
0.009 0.01275 0 0 0 0 0 0 
0.003 0.00825 0 0 0 0 0 0 
0.003 0.01425 0 0 0 0 0 0 
0.009 0.00825 0 0 0 0 0 0 
0.009 0.01425 0 0 0 0 0 0 
0.015 0.00825 0 0 0 0 0 0 
0.015 0.01425 0 0 0 0 0 0 
0.003 0.00375 0 0 0 0 0 0 
0.003 0.00975 0 0 0 0 0 0 
0.009 0.00375 0 0 0 0 0 0 
0.009 0.00975 0 0 0 0 0 0 
0.003 0.00525 0 0 0 0 0 0 
0.003 0.01125 0 0 0 0 0 0 
0.009 0.00525 0 0 0 0 0 0 
0.009 0.01125 0 0 0 0 0 0 
0.015 0.00525 0 0 0 0 0 0 
0.015 0.01125 0 0 0 0 0 0 
0.0015 0.000375 0 0 0 0 0 0 
0.0015 0.001125 0 0 0 0 0 0 
0.0015 0.001875 0 0 0 0 0 0 
0.0015 0.002625 0 0 0 0 0 0 
0.0045 0.002625 0 0 0 0 0 0 
0.0075 0.002625 0 0 0 0 0 0 
0.0105 0.002625 0 0 0 0 0 0 
0.0135 0.002625 0 0 0 0 0 0 
0.0165 0.002625 0 0 0 0 0 0 
0.00375 0.0001875 0 0 0 0 0 0 
0.00375 0.0005625 0 0 0 0 0 0 
0.00375 0.0009375 0 0 0 0 0 0 
0.00375 0.0013125 0 0 0 0 0 0 
0.00375 0.0016875 0 0 0 0 0 0 
0.00375 0.0020625 0 0 0 0 0 0 
0.004875 0.00046875 4.10341 1.1879e+22 7.89956e-05 8.87792 -10.7863 6.30622 
0.005625 0.00046875 3.87617 1.12513e+22 7.48211e-05 10.6541 -1.35558 -2.99093 
0.004875 0.00065625 3.9052 1.17187e+22 7.79291e-05 6.92617 2.62516 4.55549 
0.004875 0.00084375 3.88584 1.14887e+22 7.63999e-05 12.9681 1.99255 7.10507 
0.004875 0.00103125 3.9161 1.18692e+22 7.89299e-05 5.96329 3.64387 6.13327 
0.004875 0.00121875 4.02354 1.17147e+22 7.79026e-05 7.99447 5.986 2.28744 
0.007875 9.375e-05 4.15615 1.27362e+22 8.46955e-05 17.7553 -0.450298 -16.0744 
0.008625 9.375e-05 3.61331 1.12271e+22 7.46605e-05 12.6034 8.85925 13.1816 
0.007875 0.00028125 4.06439 1.17704e+22 7.82731e-05 18.7675 3.90789 1.06188 
0.008625 0.00028125 4.08828 1.11668e+22 7.42591e-05 9.99657 -6.01718 -1.12666 
0.007875 0.00046875 3.98319 1.09978e+22 7.31352e-05 7.96535 0.620607 2.28383 
0.008625 0.00046875 4.10527 1.09736e+22 7.29746e-05 12.928 1.38936 -1.68914 
0.010875 0.00046875 3.90129 1.00682e+22 6.69536e-05 13.7595 0.631284 1.04587 
0.011625 0.00046875 3.89952 9.71812e+21 6.46255e-05 18.503 -0.0303017 -2.82465 
0.004875 0.00215625 0 0 0 0 0 0 
0.005625 0.00215625 0 0 0 0 0 0 
0.006375 0.00215625 0 0 0 0 0 0 
0.007125 0.00215625 0 0 0 0 0 0 
0.007875 0.00215625 0 0 0 0 0 0 
0.008625 0.00215625 0 0 0 0 0 0 
0.009375 0.00215625 0 0 0 0 0 0 
0.010125 0.00215625 0 0 0 0 0 0 
0.010875 0.00215625 0 0 0 0 0 0 
0.011625 0.00215625 0 0 0 0 0 0 
0.012375 0.00215625 0 0 0 0 0 0 
0.013125 0.00215625 0 0 0 0 0 0 
0.013875 0.00215625 0 0 0 0 0 0 
0.014625 0.00215625 0 0 0 0 0 0 
0.015375 0.00215625 0 0 0 0 0 0 
0.016125 0.00215625 0 0 0 0 0 0 
0.016875 0.00215625 0 0 0 0 0 0 
0.017625 0.00215625 0 0 0 0 0 0 
0.006375 9.375e-05 3.85344 1.32191e+22 8.79067e-05 8.99757 -8.09947 -1.70623 
0.007125 9.375e-05 4.13349 9.83884e+21 6.54283e-05 13.3013 -0.0531614 -7.88145 
0.006375 0.00028125 3.90625 1.17302e+22 7.80055e-05 11.4261 5.05149 -1.24711 
0.007125 0.00028125 3.92526 1.09052e+22 7.25197e-05 15.1572 -2.97724 2.86207 
0.0054375 0.000796875 4.10877 1.13337e+22 7.53689e-05 10.9319 0.180842 -5.1086 
0.0058125 0.000796875 4.15081 1.11064e+22 7.38577e-05 8.33253 0.985846 -8.84547 
0.0054375 0.000890625 3.85596 1.1386e+22 7.57168e-05 4.40332 -0.236263 2.09054 
0.0058125 0.000890625 3.97985 1.1691e+22 7.77449e-05 20.6544 -3.49515 3.09529 
0.0054375 0.000984375 4.21435 1.17043e+22 7.78335e-05 6.8587 -2.49769 -5.93807 
0.0058125 0.000984375 4.00571 1.12904e+22 7.5081e-05 15.1904 -8.351 -10.6116 
0.0054375 0.00107813 3.96644 1.25131e+22 8.32121e-05 12.4042 3.93887 2.39189 
0.0058125 0.00107813 3.97655 1.14843e+22 7.63708e-05 11.1376 -7.45521 -0.151916 
0.0054375 0.00117188 4.0899 1.09133e+22 7.25732e-05 8.6666 -5.4823 2.50115 
0.0058125 0.00117188 3.87622 1.11837e+22 7.43715e-05 14.8601 5.60586 1.30022 
0.0054375 0.00126563 4.02433 1.13926e+22 7.57606e-05 11.7169 -3.79891 -2.48338 
0.0058125 0.00126563 4.11167 1.14462e+22 7.61174e-05 6.49641 2.87866 -3.88452 
0.0054375 0.00135937 4.16751 1.17891e+22 7.83977e-05 14.9984 5.85234 1.29734 
0.0058125 0.00135937 3.96818 1.17558e+22 7.81762e-05 11.9568 -1.67371 -0.0751701 
0.0054375 0.00145312 3.97732 1.17607e+22 7.82084e-05 6.69595 0.179946 1.07853 
0.0058125 0.00145312 4.10652 1.18853e+22 7.90371e-05 7.86915 1.21629 -0.264191 
0.0106875 0.000609375 4.10713 9.84348e+21 6.54592e-05 10.5034 -3.82351 3.99638 
0.0110625 0.000609375 3.92116 9.91777e+21 6.59532e-05 8.74719 5.27475 -2.29679 
0.0106875 0.000703125 3.70374 1.01728e+22 6.76494e-05 11.0988 -2.16097 3.37878 
0.0110625 0.000703125 3.95859 1.02372e+22 6.80775e-05 7.41349 -4.47633 -1.54025 
0.0069375 0.000796875 3.91475 1.14473e+22 7.61244e-05 12.6543 1.68648 -6.51174 
0.0073125 0.000796875 3.88154 1.0936e+22 7.27243e-05 17.2837 4.07452 2.68327 
0.0069375 0.000890625 4.29202 1.06998e+22 7.11535e-05 15.7866 3.51414 -0.770234 
0.0073125 0.000890625 3.61481 9.81025e+21 6.52382e-05 19.0476 2.66142 1.60319 
0.0061875 0.000984375 3.72353 1.13364e+22 7.53868e-05 9.02694 -2.76427 -7.16504 
0.0065625 0.000984375 4.00751 1.13594e+22 7.55398e-05 12.4517 -7.33837 3.92514 
0.0061875 0.00107813 3.88236 1.24921e+22 8.30725e-05 14.959 -0.331418 1.11327 
0.0065625 0.00107813 3.89725 1.08125e+22 7.19031e-05 10.0382 4.21827 -4.26685 
0.0069375 0.000984375 3.97358 1.13364e+22 7.53868e-05 9.46368 7.86135 -7.54253 
0.0073125 0.000984375 4.07031 1.09685e+22 7.29402e-05 9.94074 2.54369 -2.5256 
0.0069375 0.00107813 3.83332 1.11904e+22 7.44162e-05 8.01385 -1.13986 -1.64185 
0.0073125 0.00107813 3.93539 1.16523e+22 7.74878e-05 16.9777 4.98618 -4.55211 
0.0076875 0.000796875 3.76635 1.21006e+22 8.0469e-05 6.73079 5.33127 -2.28648 
0.0080625 0.000796875 4.09157 1.01406e+22 6.74353e-05 7.35134 -5.13855 -2.00892 
0.0076875 0.000890625 3.97065 1.08269e+22 7.19986e-05 13.3016 -0.597171 -4.8838 
0.0080625 0.000890625 3.75617 1.04456e+22 6.94634e-05 21.3809 0.149104 -2.33962 
0.0076875 0.000984375 3.78473 1.03016e+22 6.85057e-05 15.1082 3.94634 2.73891 
0.0080625 0.000984375 3.91424 1.04856e+22 6.9729e-05 7.0033 1.01291 -12.5379 
0.0076875 0.00107813 4.15079 1.07075e+22 7.1205e-05 16.0486 -1.39478 -7.57305 
0.0080625 0.00107813 3.95306 1.09595e+22 7.28804e-05 6.9163 9.24063 -3.38374 
0.0061875 0.00117188 4.01358 1.0894e+22 7.24448e-05 5.63164 -1.13623 3.07296 
0.0065625 0.00117188 3.93092 1.05656e+22 7.02612e-05 9.03335 -0.866074 6.72206 
0.0061875 0.00126563 3.97193 1.14105e+22 7.58796e-05 9.3206 -4.49595 3.402 
0.0065625 0.00126563 4.07011 1.0856e+22 7.21926e-05 7.89033 -1.53083 -4.17169 
0.0069375 0.00117188 3.84221 1.13382e+22 7.53991e-05 10.6624 -1.41378 7.55519 
0.0073125 0.00117188 4.14814 1.09712e+22 7.29586e-05 19.5878 -3.95331 6.83127 
0.0069375 0.00126563 3.88253 1.02837e+22 6.83868e-05 7.0543 7.31737 -2.32883 
0.0073125 0.00126563 3.9889 9.92603e+21 6.60081e-05 9.80623 -6.25649 0.207473 
0.0061875 0.00135937 3.79622 1.14061e+22 7.58509e-05 10.9035 0.379473 3.20089 
0.0065625 0.00135937 3.88016 1.11064e+22 7.38577e-05 6.74385 -4.76793 3.33495 
0.0061875 0.00145312 3.8567 1.17451e+22 7.81048e-05 8.42063 -1.17943 -3.4539 
0.0065625 0.00145312 3.9691 1.00939e+22 6.71245e-05 11.2444 1.84638 3.52777 
0.0069375 0.00135937 3.83531 1.06568e+22 7.0868e-05 7.70893 1.05839 0.334197 
0.0073125 0.00135937 3.82774 1.089e+22 7.24182e-05 8.68992 -2.0967 -1.84064 
0.0069375 0.00145312 3.91327 1.14024e+22 7.58259e-05 8.92027 -4.36802 5.09356 
0.0073125 0.00145312 3.8259 1.16828e+22 7.76904e-05 11.7438 -1.60948 0.338729 
0.0076875 0.00117188 3.96992 1.03338e+22 6.87198e-05 15.5593 5.68526 0.248581 
0.0080625 0.00117188 4.11319 1.07008e+22 7.11603e-05 10.5954 1.50307 -0.295904 
0.0076875 0.00126563 3.86736 9.71141e+21 6.45809e-05 3.1739 1.46031 6.8768 
0.0080625 0.00126563 3.8864 1.01764e+22 6.76732e-05 10.9147 -1.12644 -0.360713 
0.0084375 0.00117188 3.76038 9.88954e+21 6.57655e-05 13.0196 -1.47174 4.48108 
0.0088125 0.00117188 3.76856 1.00248e+22 6.66646e-05 14.2381 -1.4323 -2.58451 
0.0084375 0.00126563 4.0131 1.06951e+22 7.11222e-05 8.81081 3.21962 1.49656 
0.0088125 0.00126563 3.85293 1.03195e+22 6.86246e-05 3.51723 4.61596 2.47128 
0.0076875 0.00135937 3.97494 1.08067e+22 7.18645e-05 6.74524 6.36771 0.614908 
0.0080625 0.00135937 3.81969 1.10898e+22 7.3747e-05 7.28926 0.738016 7.04309 
0.0076875 0.00145312 3.9403 1.06235e+22 7.06465e-05 14.3788 1.58807 -1.8941 
0.0080625 0.00145312 3.91617 1.06547e+22 7.08537e-05 6.10887 -3.08102 -0.401749 
0.0084375 0.00135937 3.82202 1.00907e+22 6.71031e-05 17.1851 2.63707 0.687426 
0.0088125 0.00135937 4.2489 1.02406e+22 6.80997e-05 8.19046 -7.69979 1.07125 
0.0084375 0.00145312 4.01158 1.08572e+22 7.22003e-05 11.5125 4.22421 1.07615 
0.0088125 0.00145312 4.0668 1.08728e+22 7.23039e-05 11.494 -0.199819 -4.90742 
0.0091875 0.000796875 4.00609 1.10496e+22 7.34799e-05 12.1366 -1.48378 -2.27471 
0.0095625 0.000796875 3.63447 1.11632e+22 7.42355e-05 23.5622 -0.645521 -8.92405 
0.0091875 0.000890625 3.9512 1.03694e+22 6.89564e-05 14.0967 1.12349 2.6443 
0.0095625 0.000890625 3.75077 1.05727e+22 7.03085e-05 18.5906 -1.63344 -9.33543 
0.0099375 0.000796875 3.64417 9.99862e+21 6.64908e-05 12.4458 -0.66716 -7.86773 
0.0103125 0.000796875 3.94934 1.09076e+22 7.25354e-05 18.0827 4.5228 0.923537 
0.0099375 0.000890625 3.79515 1.06744e+22 7.09845e-05 12.0697 -1.34918 3.25486 
0.0103125 0.000890625 3.84711 1.1081e+22 7.36887e-05 10.6955 10.3136 -0.692444 
0.0099375 0.000984375 4.16071 1.06235e+22 7.06465e-05 17.378 -2.91532 1.91738 
0.0103125 0.000984375 3.82265 1.06235e+22 7.06465e-05 12.087 -5.65425 -2.36611 
0.0099375 0.00107813 3.83655 1.00147e+22 6.65976e-05 12.6447 12.9494 5.18535 
0.0103125 0.00107813 3.8956 1.06445e+22 7.07861e-05 17.2854 -0.540138 -2.22344 
0.0106875 0.000796875 3.75029 9.68616e+21 6.4413e-05 23.3102 1.45002 5.97596 
0.0110625 0.000796875 4.06291 9.9134e+21 6.59241e-05 22.4917 -3.8498 5.10137 
0.0106875 0.000890625 4.05734 1.05219e+22 6.99705e-05 16.0967 11.3465 2.29504 
0.0110625 0.000890625 3.82743 9.83566e+21 6.54072e-05 19.6801 -3.45771 1.99426 
0.0114375 0.000984375 4.05483 9.42781e+21 6.26949e-05 23.675 -4.68757 7.4056 
0.0118125 0.000984375 3.89503 1.04166e+22 6.92703e-05 11.2383 -7.78971 9.45566 
0.0114375 0.00107813 4.37442 9.44781e+21 6.28279e-05 18.1338 -6.25208 4.63299 
0.0118125 0.00107813 3.79566 9.9097e+21 6.58995e-05 12.8761 4.02109 -2.04537 
0.0099375 0.00117188 4.23103 1.03724e+22 6.89767e-05 13.653 1.1086 -2.25284 
0.0103125 0.00117188 4.37595 1.06428e+22 7.07749e-05 17.1943 -2.1076 -1.54865 
0.0099375 0.00126563 4.32128 9.90814e+21 6.58892e-05 10.9439 1.55595 3.00642 
0.0103125 0.00126563 4.14905 1.01764e+22 6.76732e-05 10.4465 0.216015 2.27843 
0.0091875 0.00135937 3.83026 1.17558e+22 7.81762e-05 11.9732 -0.0879421 2.58447 
0.0095625 0.00135937 3.93109 1.04903e+22 6.97606e-05 5.03469 6.74807 0.770998 
0.0091875 0.00145312 3.96513 1.05924e+22 7.04393e-05 11.955 -2.70891 -1.97091 
0.0095625 0.00145312 3.93388 1.06858e+22 7.10608e-05 6.81354 -0.0713409 5.00725 
0.0099375 0.00135937 4.06335 1.07234e+22 7.13109e-05 8.96091 4.20316 3.23438 
0.0103125 0.00135937 3.79856 1.07234e+22 7.13109e-05 12.4157 -2.77823 -3.66307 
0.0099375 0.00145312 4.06404 1.04366e+22 6.94035e-05 11.1422 -0.581248 0.436771 
0.0103125 0.00145312 3.63791 9.82911e+21 6.53635e-05 9.69323 -3.31737 -0.483043 
0.0106875 0.00117188 3.8793 9.65776e+21 6.42241e-05 21.8682 6.87846 -6.19621 
0.0110625 0.00117188 4.17834 9.44529e+21 6.28112e-05 14.4856 1.75238 -2.91954 
0.0106875 0.00126563 4.05943 9.90814e+21 6.58892e-05 16.4292 -5.23334 -0.325797 
0.0110625 0.00126563 3.80206 9.21064e+21 6.12508e-05 12.1115 3.75926 -2.27748 
0.0114375 0.00117188 3.87045 1.02372e+22 6.80775e-05 11.4381 1.19954 -1.66219 
0.0118125 0.00117188 4.09948 9.81228e+21 6.52517e-05 16.404 4.05303 1.34204 
0.0114375 0.00126563 4.0168 9.81872e+21 6.52945e-05 10.1011 2.64423 5.85017 
0.0118125 0.00126563 3.96761 9.99757e+21 6.64838e-05 6.25638 -0.249518 -0.129749 
0.0106875 0.00135937 3.97248 9.97413e+21 6.6328e-05 4.10681 3.80948 -0.23363 
0.0110625 0.00135937 4.01354 9.75767e+21 6.48885e-05 4.91982 -3.5202 -0.40804 
0.0106875 0.00145312 3.90087 1.04055e+22 6.91963e-05 9.44132 3.16088 0.730718 
0.0110625 0.00145312 4.21227 1.03743e+22 6.89891e-05 13.5893 9.35497 -3.12432 
0.0114375 0.00135937 3.89399 9.87422e+21 6.56636e-05 9.79858 -0.5506 0.499549 
0.0118125 0.00135937 3.89524 9.55785e+21 6.35597e-05 13.1702 -1.35951 -3.37904 
0.0114375 0.00145312 4.05007 9.78237e+21 6.50528e-05 12.5529 0.52756 -1.49556 
0.0118125 0.00145312 3.95184 9.45526e+21 6.28775e-05 8.39908 -3.31339 0.0848628 
0.0058125 0.00154688 4.00469 1.17356e+22 7.8042e-05 10.6329 -3.19784 -2.02206 
0.0054375 0.00164063 4.07635 1.1272e+22 7.49587e-05 8.69164 -5.19845 7.86148 
0.0058125 0.00164063 4.18027 1.15755e+22 7.69772e-05 5.60944 3.69607 -2.06685 
0.0046875 0.00173438 0 0 0 0 0 0 
0.0050625 0.00173438 3.86814 1.21179e+22 8.05839e-05 11.1849 -3.92757 -11.1127 
0.0046875 0.00182813 0 0 0 0 0 0 
0.0050625 0.00182813 3.75825 1.18308e+22 7.86745e-05 3.96485 -4.85527 -2.71187 
0.0054375 0.00173438 4.09385 1.18895e+22 7.90651e-05 9.25233 3.30301 -1.64605 
0.0054375 0.00192187 4.0264 1.11653e+22 7.42493e-05 6.98505 -3.84639 0.89589 
0.0058125 0.00192187 3.89289 1.15658e+22 7.69123e-05 8.01959 -5.02489 -0.845077 
0.0054375 0.00201563 4.21296 1.11901e+22 7.4414e-05 -3.03521 -2.63055 -2.98151 
0.0058125 0.00201563 4.15069 1.12243e+22 7.46415e-05 -4.17929 -1.39754 -5.51994 
0.0061875 0.00154688 4.10618 1.10186e+22 7.32738e-05 3.69102 0.765378 3.89577 
0.0065625 0.00154688 3.92662 1.11942e+22 7.44416e-05 6.98034 4.23806 -0.422934 
0.0061875 0.00164063 4.09144 1.09271e+22 7.2665e-05 0.138597 -1.52942 4.72416 
0.0065625 0.00164063 4.03637 1.16445e+22 7.74359e-05 7.14364 -0.762103 4.54793 
0.0073125 0.00154688 4.13085 1.14576e+22 7.61931e-05 10.2464 -1.32105 5.56249 
0.0069375 0.00164063 4.0294 1.13962e+22 7.57844e-05 4.72385 0.0272896 -4.23571 
0.0073125 0.00164063 4.02399 1.11064e+22 7.38577e-05 5.52475 -2.82721 -2.3149 
0.0061875 0.00173438 4.05807 1.09629e+22 7.2903e-05 10.1862 0.188249 0.624325 
0.0065625 0.00173438 4.00816 1.14457e+22 7.61142e-05 7.95961 3.94221 3.54454 
0.0061875 0.00182813 4.07126 1.14407e+22 7.60808e-05 7.98718 5.51212 -1.31467 
0.0065625 0.00182813 4.05593 1.07226e+22 7.13052e-05 7.09257 4.27772 0.877261 
0.0069375 0.00173438 3.94263 1.10412e+22 7.34238e-05 7.0931 -0.605791 -2.33967 
0.0073125 0.00173438 4.06384 9.89268e+21 6.57863e-05 5.60325 2.4563 -1.92421 
0.0069375 0.00182813 3.94329 1.0475e+22 6.96584e-05 13.4113 -2.73076 -1.72112 
0.0076875 0.00154688 4.07512 1.11211e+22 7.3955e-05 4.40862 -1.14622 -1.74047 
0.0080625 0.00154688 3.8127 1.0287e+22 6.84084e-05 12.8038 4.79923 -0.937317 
0.0076875 0.00164063 3.96753 1.07753e+22 7.16557e-05 5.81983 3.65234 0.252069 
0.0084375 0.00154688 3.79252 1.07113e+22 7.12304e-05 5.59913 -1.51873 -1.54354 
0.0088125 0.00164063 4.0984 1.04994e+22 6.98208e-05 4.85976 1.29341 -3.62167 
0.0076875 0.00173438 3.91162 1.11325e+22 7.40313e-05 5.00319 5.99356 1.92686 
0.0080625 0.00173438 4.14809 1.08585e+22 7.22087e-05 6.54517 -0.578926 0.905102 
0.0076875 0.00182813 3.94631 1.14036e+22 7.58338e-05 4.64719 -2.97937 -0.49029 
0.0084375 0.00182813 3.89551 1.06359e+22 7.07288e-05 1.28293 1.46023 2.27225 
0.0088125 0.00182813 3.91082 1.08836e+22 7.23756e-05 6.63025 6.27775 4.57063 
0.0061875 0.00192187 4.19409 1.11182e+22 7.3936e-05 5.83809 -2.91013 -6.70793 
0.0061875 0.00201563 4.05909 1.21482e+22 8.07858e-05 5.71525 -9.88688 -5.14411 
0.0065625 0.00201563 3.75276 1.10532e+22 7.35037e-05 -1.87396 -0.413405 -1.74904 
0.0073125 0.00192187 4.05861 1.11889e+22 7.4406e-05 4.75298 -2.1291 3.0687 
0.0069375 0.00201563 3.67619 1.21825e+22 8.10134e-05 7.34505 4.99493 -1.28171 
0.0073125 0.00201563 3.94684 1.09505e+22 7.2821e-05 -0.754666 -6.67552 0.0509038 
0.0076875 0.00192187 4.01605 1.00818e+22 6.70437e-05 2.70114 3.08817 2.99457 
0.0080625 0.00192187 3.89193 1.06118e+22 7.05682e-05 4.10078 5.00284 -0.315777 
0.0076875 0.00201563 3.87186 1.08136e+22 7.19108e-05 -7.76036 -10.2111 1.99879 
0.0080625 0.00201563 3.89924 1.09847e+22 7.30486e-05 8.05696 -6.47022 -2.22615 
0.0084375 0.00192187 4.13862 1.04115e+22 6.92367e-05 4.54778 -4.5666 -1.87596 
0.0088125 0.00192187 4.09154 1.03291e+22 6.86884e-05 2.10674 -2.14401 -4.63926 
0.0084375 0.00201563 4.06396 1.06768e+22 7.10005e-05 2.12778 -5.94762 4.61539 
0.0088125 0.00201563 4.27275 1.02661e+22 6.82697e-05 12.7417 4.7059 -5.92766 
0.0091875 0.00154688 4.0612 1.03162e+22 6.8603e-05 5.03276 3.70835 6.00705 
0.0095625 0.00154688 4.04948 9.59923e+21 6.38349e-05 10.4344 2.38622 -1.30621 
0.0091875 0.00164063 4.23946 1.04028e+22 6.91785e-05 11.2498 0.104264 -0.712308 
0.0095625 0.00164063 3.97322 1.05408e+22 7.0096e-05 13.066 7.59319 -1.81809 
0.0099375 0.00154688 3.91895 1.04918e+22 6.97707e-05 4.48995 2.42116 -1.28602 
0.0103125 0.00154688 3.95578 9.37973e+21 6.23752e-05 12.9657 2.68923 -1.47147 
0.0099375 0.00164063 3.87533 1.03338e+22 6.87198e-05 2.66243 3.27355 1.61322 
0.0103125 0.00164063 3.95143 1.01268e+22 6.73435e-05 6.00291 0.613451 -4.55748 
0.0091875 0.00173438 3.88334 1.07801e+22 7.1688e-05 5.9357 2.60433 2.60469 
0.0095625 0.00173438 3.8257 1.0219e+22 6.7956e-05 3.6162 -4.87684 1.46968 
0.0091875 0.00182813 4.10786 1.06854e+22 7.10582e-05 4.36167 0.0245463 3.45131 
0.0095625 0.00182813 3.93887 1.04378e+22 6.94114e-05 2.88592 4.54109 0.104276 
0.0099375 0.00173438 4.06712 1.01145e+22 6.72617e-05 11.5636 2.85617 -4.30904 
0.0103125 0.00173438 3.90699 1.07149e+22 7.1254e-05 3.057 1.0769 -1.87819 
0.0099375 0.00182813 4.08522 1.02026e+22 6.7847e-05 6.55697 -0.688268 -3.99717 
0.0103125 0.00182813 4.03509 1.00664e+22 6.69413e-05 6.22669 -1.33992 -1.24374 
0.0106875 0.00154688 4.11152 1.00821e+22 6.70461e-05 6.07088 2.11089 0.587984 
0.0110625 0.00154688 3.93294 9.90652e+21 6.58783e-05 3.59149 -1.41939 -3.70185 
0.0106875 0.00164063 3.99262 9.82332e+21 6.53251e-05 9.55905 0.0131191 2.13241 
0.0110625 0.00164063 4.23912 9.79573e+21 6.51416e-05 10.5902 -4.04467 -2.69281 
0.0114375 0.00154688 4.15899 1.01699e+22 6.76299e-05 9.14362 -1.91611 1.02184 
0.0118125 0.00154688 4.02955 9.92115e+21 6.59757e-05 9.14499 -0.590776 3.84053 
0.0114375 0.00164063 4.0707 9.67155e+21 6.43158e-05 12.3983 -1.96788 2.74582 
0.0118125 0.00164063 3.96966 9.9061e+21 6.58756e-05 12.7204 5.1993 0.741806 
0.0106875 0.00173438 3.89779 9.94488e+21 6.61335e-05 12.0472 -2.69239 2.6977 
0.0110625 0.00173438 3.67159 9.87963e+21 6.56995e-05 8.32116 -3.04767 0.453317 
0.0106875 0.00182813 4.11258 9.79396e+21 6.51298e-05 8.62762 -1.89626 -1.54849 
0.0110625 0.00182813 4.00955 1.0413e+22 6.92467e-05 4.92876 3.83241 -2.66694 
0.0114375 0.00173438 3.97292 9.85352e+21 6.55259e-05 10.5537 -1.8396 6.38259 
0.0118125 0.00173438 3.88771 9.63166e+21 6.40505e-05 2.93712 2.87563 -0.895829 
0.0114375 0.00182813 4.15251 9.6949e+21 6.44711e-05 1.77639 -2.29093 1.27271 
0.0118125 0.00182813 3.97827 9.70728e+21 6.45534e-05 7.08709 1.25946 3.02726 
0.0091875 0.00192187 4.01993 1.02938e+22 6.84535e-05 8.9783 -1.77265 -0.838736 
0.0091875 0.00201563 4.09277 9.78703e+21 6.50838e-05 8.1438 -2.49937 1.6862 
0.0095625 0.00201563 4.17694 9.92392e+21 6.5994e-05 3.88748 11.252 0.800547 
0.0099375 0.00192187 3.94086 1.05882e+22 7.04115e-05 5.56685 -7.86097 -1.28839 
0.0103125 0.00192187 4.08836 1.01406e+22 6.74353e-05 2.39851 5.43143 0.70023 
0.0099375 0.00201563 3.95103 9.17107e+21 6.09876e-05 -2.08754 5.43029 -6.34938 
0.0103125 0.00201563 4.56924 1.02319e+22 6.80421e-05 8.47029 -4.16097 -15.0003 
0.0106875 0.00192187 4.15708 1.00582e+22 6.6887e-05 5.634 3.26112 -1.70709 
0.0110625 0.00192187 3.99117 9.97576e+21 6.63388e-05 2.84966 3.20579 -1.76687 
0.0106875 0.00201563 4.04963 1.02319e+22 6.80421e-05 4.0765 0.401474 1.13466 
0.0110625 0.00201563 4.03814 1.01977e+22 6.78146e-05 6.87053 -8.22549 -9.60863 
0.0118125 0.00192187 4.1626 1.01524e+22 6.75136e-05 7.47202 -1.81649 6.40749 
0.0114375 0.00201563 4.11309 1.05741e+22 7.03178e-05 -2.64244 -0.873156 -1.11427 
0.0118125 0.00201563 3.95863 1.01292e+22 6.73594e-05 8.64727 -0.617064 -0.838044 
0.0121875 0.00154688 3.80057 9.62849e+21 6.40295e-05 14.1957 5.86084 1.68851 
0.0125625 0.00154688 4.03284 9.99432e+21 6.64622e-05 7.32868 3.84009 -2.10574 
0.0121875 0.00164063 3.92194 1.00855e+22 6.70683e-05 -0.279105 -3.88489 0.105252 
0.0125625 0.00164063 4.06597 9.4784e+21 6.30314e-05 10.9771 0.608159 1.81492 
0.0129375 0.00154688 3.82091 9.99432e+21 6.64622e-05 2.80517 -1.75908 4.79778 
0.0133125 0.00154688 4.2512 9.70166e+21 6.4516e-05 14.4363 0.483307 2.91216 
0.0129375 0.00164063 4.03643 9.02311e+21 6.00036e-05 7.37644 -0.356498 1.56818 
0.0133125 0.00164063 4.04532 9.76813e+21 6.49581e-05 8.60152 0.109735 3.60156 
0.0121875 0.00173438 3.84972 9.85352e+21 6.55259e-05 8.3454 1.65885 0.386287 
0.0125625 0.00173438 4.19802 9.44894e+21 6.28355e-05 3.53507 4.68409 -10.8013 
0.0121875 0.00182813 3.90344 9.44727e+21 6.28243e-05 9.5557 -5.70591 2.02295 
0.0125625 0.00182813 4.02226 9.3606e+21 6.2248e-05 10.46 2.11777 -2.89377 
0.0129375 0.00173438 3.96915 9.5925e+21 6.37901e-05 9.83283 -2.11249 1.66079 
0.0133125 0.00173438 4.01618 9.12267e+21 6.06657e-05 6.77505 -3.24432 1.16941 
0.0129375 0.00182813 3.87342 9.74443e+21 6.48005e-05 3.41744 -0.0332543 -2.93926 
0.0133125 0.00182813 3.83292 9.06343e+21 6.02718e-05 10.1381 3.71551 -2.52066 
0.0136875 0.00154688 3.81951 9.16024e+21 6.09156e-05 7.23479 2.42333 4.83284 
0.0140625 0.00154688 3.89955 9.59923e+21 6.38349e-05 7.83323 0.405256 -4.0541 
0.0136875 0.00164063 3.99737 9.35423e+21 6.22056e-05 8.46059 -1.0608 -3.31218 
0.0140625 0.00164063 3.86898 9.38182e+21 6.23891e-05 0.77623 3.95415 5.26822 
0.0144375 0.00154688 3.86516 9.17487e+21 6.10129e-05 10.847 6.78677 -0.790738 
0.0148125 0.00154688 4.25148 8.99927e+21 5.98452e-05 6.57031 -3.8543 -2.26376 
0.0144375 0.00164063 4.11407 9.53359e+21 6.33984e-05 5.02248 -1.76557 -2.22778 
0.0148125 0.00164063 3.87393 8.80236e+21 5.85357e-05 11.6452 4.29765 3.7328 
0.0136875 0.00173438 4.06422 9.5403e+21 6.3443e-05 10.7197 -0.314445 -1.73336 
0.0140625 0.00173438 4.2535 8.83554e+21 5.87564e-05 10.6727 2.62755 3.57595 
0.0136875 0.00182813 3.83988 9.76919e+21 6.49651e-05 7.06718 6.74948 -2.16351 
0.0140625 0.00182813 3.99074 9.44727e+21 6.28243e-05 6.74394 0.246459 -0.31492 
0.0144375 0.00173438 3.90535 8.70503e+21 5.78885e-05 7.00115 -0.478223 -1.46934 
0.0148125 0.00173438 3.95034 8.84859e+21 5.88432e-05 9.63011 -7.41972 -0.90708 
0.0144375 0.00182813 4.06951 9.38536e+21 6.24126e-05 3.49529 -0.687878 4.18602 
0.0148125 0.00182813 4.27508 9.28631e+21 6.17539e-05 3.88566 -2.47407 0.0229794 
0.0121875 0.00192187 3.98946 9.62242e+21 6.39891e-05 4.23748 1.58104 0.239886 
0.0125625 0.00192187 4.02581 9.11598e+21 6.06213e-05 4.81301 -3.15071 1.47932 
0.0121875 0.00201563 4.41067 1.00266e+22 6.66767e-05 5.52486 3.94217 0.618569 
0.0125625 0.00201563 4.24892 9.10263e+21 6.05325e-05 11.2597 1.5673 7.32751 
0.0129375 0.00192187 4.03635 1.01053e+22 6.72003e-05 8.25553 6.53466 -2.96417 
0.0129375 0.00201563 3.95871 9.65015e+21 6.41735e-05 3.12967 -3.17015 19.7341 
0.0133125 0.00201563 4.02689 8.69198e+21 5.78017e-05 4.45791 -1.44893 1.83888 
0.0136875 0.00192187 3.84708 9.06887e+21 6.0308e-05 8.56404 3.76263 -1.15059 
0.0140625 0.00192187 4.13314 9.41042e+21 6.25793e-05 10.2459 -5.63575 4.52994 
0.0136875 0.00201563 4.06433 9.27373e+21 6.16703e-05 2.33394 0.630688 3.90219 
0.0140625 0.00201563 3.66389 9.37639e+21 6.2353e-05 -0.11646 4.75018 2.11137 
0.0151875 0.00154688 4.03475 8.56029e+21 5.69259e-05 7.26609 6.21155 -0.337251 
0.0155625 0.00154688 3.95056 9.02854e+21 6.00398e-05 10.6907 -0.0794914 -0.317548 
0.0151875 0.00164063 3.88331 9.25765e+21 6.15634e-05 12.3552 -0.73635 0.269494 
0.0155625 0.00164063 3.76075 8.71958e+21 5.79852e-05 5.79753 -0.435016 5.09006 
0.0159375 0.00154688 3.95628 8.38469e+21 5.57582e-05 8.07264 1.89774 -5.50634 
0.0163125 0.00154688 4.02987 8.53102e+21 5.67313e-05 8.46912 4.59227 2.60864 
0.0159375 0.00164063 3.83038 8.69198e+21 5.78017e-05 7.94474 0.523543 -2.11653 
0.0163125 0.00164063 3.81694 8.14011e+21 5.41317e-05 14.3622 -5.30405 -0.542666 
0.0151875 0.00173438 4.18316 8.49622e+21 5.64998e-05 4.72116 -1.8722 -2.04473 
0.0155625 0.00173438 3.85803 8.03943e+21 5.34622e-05 8.17186 0.845495 -4.57457 
0.0151875 0.00182813 3.9476 8.55578e+21 5.6896e-05 3.15514 3.64155 -4.62271 
0.0155625 0.00182813 4.03563 8.80342e+21 5.85427e-05 12.1778 -3.68826 -6.82809 
0.0159375 0.00173438 3.97127 8.40486e+21 5.58923e-05 15.8887 0.909192 2.10636 
0.0163125 0.00173438 3.95014 8.10469e+21 5.38962e-05 13.9434 0.04436 1.1136 
0.0159375 0.00182813 3.9939 8.70436e+21 5.7884e-05 6.25571 3.71862 -3.27512 
0.0163125 0.00182813 4.11803 8.02337e+21 5.33554e-05 4.54251 0.144859 4.37974 
0.0166875 0.00154688 4.0071 8.31152e+21 5.52716e-05 7.73801 -1.62213 -2.2439 
0.0170625 0.00154688 3.98928 8.17983e+21 5.43959e-05 13.2832 2.49801 0.500477 
0.0166875 0.00164063 3.96985 8.07113e+21 5.3673e-05 9.2201 2.83282 -0.307218 
0.0170625 0.00164063 4.1831 7.89177e+21 5.24803e-05 3.04823 -3.88108 1.26703 
0.0174375 0.00154688 3.98124 7.9896e+21 5.31308e-05 12.4712 -0.728371 -8.40593 
0.0178125 0.00154688 4.156 7.53598e+21 5.01143e-05 8.97413 -5.25405 -0.756053 
0.0174375 0.00164063 4.05139 8.44364e+21 5.61502e-05 8.74102 -4.5033 -2.42167 
0.0178125 0.00164063 4.27665 8.5954e+21 5.71594e-05 10.8209 -6.62787 -1.42901 
0.0166875 0.00173438 4.10886 8.24825e+21 5.48508e-05 7.49552 0.0374622 2.70454 
0.0170625 0.00173438 4.09601 8.37876e+21 5.57187e-05 7.59812 -4.13818 3.94386 
0.0166875 0.00182813 4.16012 8.41958e+21 5.59902e-05 6.10501 -3.5512 -3.97973 
0.0170625 0.00182813 4.18304 8.39482e+21 5.58256e-05 6.53016 2.87149 -2.03162 
0.0174375 0.00173438 4.02198 7.96112e+21 5.29415e-05 7.32795 3.15027 -0.753495 
0.0178125 0.00173438 3.80612 8.05248e+21 5.3549e-05 10.6153 3.16713 -0.543034 
0.0174375 0.00182813 3.98334 8.06051e+21 5.36024e-05 4.32307 -0.738953 3.30553 
0.0178125 0.00182813 3.94975 7.5281e+21 5.00619e-05 4.35895 7.62719 -1.98188 
0.0151875 0.00192187 4.08393 8.75087e+21 5.81933e-05 9.66622 4.19325 -4.77815 
0.0155625 0.00192187 4.09094 8.20909e+21 5.45905e-05 9.3666 2.46382 1.16755 
0.0151875 0.00201563 4.20262 8.86308e+21 5.89395e-05 0.543813 -0.898878 -5.644 
0.0155625 0.00201563 3.94885 8.79464e+21 5.84844e-05 1.23004 5.47079 4.2009 
0.0163125 0.00192187 3.94578 8.65665e+21 5.75667e-05 6.31923 0.506246 -0.859415 
0.0159375 0.00201563 4.10417 7.73381e+21 5.14298e-05 2.64708 5.51347 5.61609 
0.0163125 0.00201563 4.00903 8.2129e+21 5.46158e-05 -0.150291 5.57413 -9.34817 
0.0174375 0.00192187 4.13686 8.33865e+21 5.5452e-05 13.4333 -1.83294 0.686547 
0.0178125 0.00192187 3.80486 7.83221e+21 5.20842e-05 10.4845 1.34733 4.34661 
0.0174375 0.00201563 4.17654 8.52088e+21 5.66639e-05 9.5216 -4.98366 10.2186 
0.0178125 0.00201563 3.98929 7.83647e+21 5.21125e-05 8.2063 2.62141 3.07727 
0.0069375 0.000609375 4.19057 1.14036e+22 7.58338e-05 22.6429 -9.87588 -17.2076 
0.0073125 0.000609375 4.12628 1.18865e+22 7.9045e-05 14.0855 -0.385199 -0.700703 
0.0069375 0.000703125 4.08784 1.04948e+22 6.97902e-05 10.5435 -5.0199 -3.31625 
0.0073125 0.000703125 4.09443 1.06557e+22 7.08606e-05 17.5335 -3.95669 2.62639 
0.0084375 0.000609375 4.29413 1.10321e+22 7.33637e-05 14.4115 4.66131 3.99931 
0.0088125 0.000609375 3.92476 1.04007e+22 6.91644e-05 17.1224 8.02688 0.0458268 
0.0084375 0.000703125 3.79988 1.07523e+22 7.15028e-05 23.6683 -0.0812042 -8.57417 
0.0088125 0.000703125 4.12422 9.72214e+21 6.46522e-05 20.844 -6.49271 -7.94132 
0.0099375 0.000609375 4.08208 1.05492e+22 7.01525e-05 4.84942 -6.61658 -4.37695 
0.0103125 0.000609375 4.05941 1.04378e+22 6.94114e-05 18.9793 -5.39002 0.37654 
0.0099375 0.000703125 3.85987 1.0205e+22 6.78635e-05 17.4952 2.81373 2.20949 
0.0103125 0.000703125 3.64106 1.01406e+22 6.74353e-05 14.9361 6.17715 -2.30345 
0.0061875 0.000796875 4.09758 1.17029e+22 7.78245e-05 15.203 2.08953 0.399691 
0.0065625 0.000796875 3.84981 1.28107e+22 8.51914e-05 6.4201 -0.0445456 -7.92052 
0.0061875 0.000890625 4.02917 1.12335e+22 7.47028e-05 3.41544 -5.1151 6.801 
0.0065625 0.000890625 4.03132 1.08014e+22 7.18296e-05 5.75474 2.81141 0.274154 
0.0091875 0.000984375 3.91726 1.02326e+22 6.8047e-05 -0.365496 -2.94284 -1.13744 
0.0095625 0.000984375 3.93516 1.07155e+22 7.12582e-05 16.822 4.32212 -5.85042 
0.0091875 0.00107813 3.93931 9.78373e+21 6.50618e-05 18.8636 1.72835 -3.10507 
0.0095625 0.00107813 4.04394 1.03296e+22 6.86919e-05 9.6342 -2.57193 -1.9551 
0.0114375 0.000796875 4.05595 1.02259e+22 6.8002e-05 17.5484 4.44788 0.176501 
0.0118125 0.000796875 4.00082 9.62935e+21 6.40352e-05 13.5201 -2.49721 1.84756 
0.0114375 0.000890625 3.93982 8.53949e+21 5.67876e-05 18.0269 2.84164 5.78322 
0.0118125 0.000890625 3.98501 9.50527e+21 6.321e-05 14.4124 -4.88654 -3.50692 
0.0106875 0.000984375 4.17823 1.00947e+22 6.71295e-05 14.5249 2.44962 -3.75531 
0.0110625 0.000984375 4.30702 1.00257e+22 6.66707e-05 11.0279 5.64417 -0.489549 
0.0106875 0.00107813 3.91449 9.78373e+21 6.50618e-05 9.91251 -6.46708 -3.77515 
0.0110625 0.00107813 3.86995 1.03926e+22 6.91107e-05 11.3529 2.45982 2.46937 
0.0091875 0.00117188 3.82493 1.07974e+22 7.18025e-05 10.2177 1.18716 0.873838 
0.0095625 0.00117188 3.92829 1.11451e+22 7.41146e-05 19.5233 5.64367 -0.32715 
0.0091875 0.00126563 3.95804 1.04805e+22 6.9695e-05 7.76817 -4.94507 0.0618625 
0.0095625 0.00126563 3.93144 1.03553e+22 6.88625e-05 11.8895 0.578793 -5.17471 
0.0148125 0.00192187 3.93689 8.96287e+21 5.96031e-05 9.37729 -2.50077 -1.4725 
0.0144375 0.00201563 4.18992 8.384e+21 5.57536e-05 5.22738 7.5424 0.0157943 
0.0148125 0.00201563 3.88436 9.17107e+21 6.09876e-05 -5.07291 -2.99238 0.0692344 
0.0166875 0.00192187 4.00443 8.26798e+21 5.49821e-05 2.46738 -2.9929 2.76537 
0.0170625 0.00192187 4.04672 7.63198e+21 5.07527e-05 10.5365 3.16586 1.77997 
0.0166875 0.00201563 3.88035 8.62354e+21 5.73465e-05 4.20172 2.13871 -6.12946 