ITEM: TIMESTEP
500000
ITEM: NUMBER OF CELLS
42224
ITEM: BOX BOUNDS oo ao pp
0 0.35
0 0.03
-0.1 0.1
ITEM: CELLS xc yc f_out[1] f_out[2] f_out[3] f_out[4] f_out[5] f_out[6] 
0.00875 0.01575 0 0 0 0 0 0 
0.00875 0.01875 0 0 0 0 0 0 
0.00875 0.02175 0 0 0 0 0 0 
0.00875 0.02475 0 0 0 0 0 0 
0.00875 0.02775 0 0 0 0 0 0 
0.02625 0.02475 0 0 0 0 0 0 
0.02625 0.02775 0 0 0 0 0 0 
0.00875 0.01425 0 0 0 0 0 0 
0.00875 0.01725 0 0 0 0 0 0 
0.00875 0.02025 0 0 0 0 0 0 
0.00875 0.02325 0 0 0 0 0 0 
0.00875 0.02625 0 0 0 0 0 0 
0.00875 0.02925 0 0 0 0 0 0 
0.02625 0.02325 0 0 0 0 0 0 
0.02625 0.02625 0 0 0 0 0 0 
0.02625 0.02925 0 0 0 0 0 0 
0.04375 0.02325 0 0 0 0 0 0 
0.04375 0.02625 0 0 0 0 0 0 
0.04375 0.02925 0 0 0 0 0 0 
0.004375 0.013125 0 0 0 0 0 0 
0.013125 0.013125 0 0 0 0 0 0 
0.021875 0.022125 0 0 0 0 0 0 
0.030625 0.022125 0 0 0 0 0 0 
0.0021875 0.0001875 1.97363 1.29751e+22 8.62843e-05 30.0893 2.14803 -0.0429654 
0.0109375 0.0009375 2.06393 5.25837e+21 3.49682e-05 2.93762 11.689 -0.301517 
0.0109375 0.0009375 1.97569 2.58842e+21 1.7213e-05 -3.52331 6.22167 9.66585 
0.0021875 0.0031875 0 0 0 0 0 0 
0.0021875 0.0035625 0 0 0 0 0 0 
0.0021875 0.0039375 0 0 0 0 0 0 
0.0021875 0.0043125 0 0 0 0 0 0 
0.0021875 0.0061875 0 0 0 0 0 0 
0.0021875 0.0065625 0 0 0 0 0 0 
0.0021875 0.0069375 0 0 0 0 0 0 
0.0021875 0.0073125 0 0 0 0 0 0 
0.0021875 0.0091875 0 0 0 0 0 0 
0.0021875 0.0095625 0 0 0 0 0 0 
0.0021875 0.0099375 0 0 0 0 0 0 
0.0021875 0.0103125 0 0 0 0 0 0 
0.0021875 0.0121875 0 0 0 0 0 0 
0.0021875 0.0125625 0 0 0 0 0 0 
0.0021875 0.0020625 0 0 0 0 0 0 
0.0021875 0.0024375 0 0 0 0 0 0 
0.0021875 0.0028125 0 0 0 0 0 0 
0.0021875 0.0046875 0 0 0 0 0 0 
0.0021875 0.0050625 0 0 0 0 0 0 
0.0021875 0.0054375 0 0 0 0 0 0 
0.0021875 0.0058125 0 0 0 0 0 0 
0.0021875 0.0076875 0 0 0 0 0 0 
0.0021875 0.0080625 0 0 0 0 0 0 
0.0021875 0.0084375 0 0 0 0 0 0 
0.0021875 0.0088125 0 0 0 0 0 0 
0.0021875 0.0106875 0 0 0 0 0 0 
0.0021875 0.0110625 0 0 0 0 0 0 
0.0021875 0.0114375 0 0 0 0 0 0 
0.0021875 0.0118125 0 0 0 0 0 0 
0.0196875 0.0001875 2.07782 2.64381e+21 1.75813e-05 2.27222 0.291459 2.80915 
0.0240625 0.0001875 2.05811 2.51964e+21 1.67556e-05 2.65717 -0.697726 1.15866 
0.00109375 0.00046875 0 0 0 0 0 0 
0.00328125 0.00046875 1.98296 1.34562e+22 8.94838e-05 29.8878 -1.12503 -5.42322 
0.00109375 0.00065625 0 0 0 0 0 0 
0.00765625 0.00046875 1.77748 5.40558e+21 3.59471e-05 38.6392 4.20392 -3.10726 
0.00765625 0.00065625 1.80086 5.45762e+21 3.62932e-05 42.5954 8.41555 1.02702 
0.00109375 0.00084375 0 0 0 0 0 0 
0.00109375 0.00103125 0 0 0 0 0 0 
0.00109375 0.00121875 0 0 0 0 0 0 
0.00109375 0.00140625 0 0 0 0 0 0 
0.00546875 0.00309375 2.01503 3.29242e+21 2.18946e-05 -1.26759 0.236383 2.24236 
0.00546875 0.00328125 2.01544 3.29906e+21 2.19387e-05 -1.1595 4.09061 1.18401 
0.00546875 0.00346875 2.0313 3.25892e+21 2.16718e-05 -1.64404 4.27474 -1.81459 
0.00546875 0.00365625 1.94489 3.41955e+21 2.274e-05 7.56892 3.89839 -0.338455 
0.00984375 0.00309375 1.96982 3.89743e+21 2.59179e-05 3.67559 10.0603 3.39707 
0.0120312 0.00309375 1.86034 2.83406e+21 1.88465e-05 -1.59634 -0.0298805 2.1915 
0.0120312 0.00328125 1.842 2.70255e+21 1.7972e-05 4.11385 2.23912 0.749654 
0.00546875 0.00384375 1.99505 3.65803e+21 2.43259e-05 0.766707 3.81368 -2.72603 
0.00546875 0.00403125 2.03961 3.3888e+21 2.25355e-05 -0.822886 2.47479 -0.820691 
0.00546875 0.00421875 1.99592 3.30447e+21 2.19747e-05 -1.60663 6.37542 1.9824 
0.00546875 0.00440625 2.07209 3.37236e+21 2.24262e-05 -5.05882 5.10771 -6.03553 
0.0120312 0.00421875 1.99975 2.58487e+21 1.71894e-05 -0.0440341 -0.901006 -2.622 
0.0120312 0.00440625 1.98213 2.51567e+21 1.67292e-05 -1.98318 -2.1342 -0.0511279 
0.00546875 0.00609375 1.98762 3.40862e+21 2.26673e-05 -0.250706 0.498632 -2.82796 
0.00546875 0.00628125 1.98059 3.48493e+21 2.31748e-05 3.03604 0.70738 -0.0131411 
0.00546875 0.00646875 2.07952 3.21102e+21 2.13533e-05 -0.536311 4.24647 -0.380274 
0.00546875 0.00665625 2.02915 3.00655e+21 1.99935e-05 -0.667648 2.70029 -3.23785 
0.0120312 0.00609375 1.92903 2.52369e+21 1.67825e-05 -1.13905 -0.948029 -5.56251 
0.0120312 0.00646875 2.02085 2.68923e+21 1.78834e-05 -0.108169 -5.98292 0.902852 
0.0120312 0.00665625 2.00873 2.67949e+21 1.78186e-05 0.695553 4.95073 0.103515 
0.00546875 0.00684375 2.00992 3.23936e+21 2.15417e-05 5.26677 0.898209 -2.14397 
0.00546875 0.00703125 2.02567 3.07912e+21 2.04762e-05 0.829917 4.38585 -0.336665 
0.00546875 0.00721875 2.08059 3.16515e+21 2.10482e-05 -5.49693 5.49912 2.73282 
0.00546875 0.00740625 1.97432 3.30615e+21 2.19859e-05 3.44338 3.33093 -0.536929 
0.0120312 0.00684375 1.96655 2.57981e+21 1.71557e-05 1.50652 1.24701 4.51399 
0.0120312 0.00703125 1.98568 2.53374e+21 1.68494e-05 -0.755084 -1.72086 0.147999 
0.0120312 0.00721875 2.14064 2.66713e+21 1.77364e-05 1.68286 -4.56984 -1.68185 
0.0120312 0.00740625 1.98461 2.56995e+21 1.70902e-05 -2.97171 0.362863 1.14613 
0.00546875 0.00909375 1.98151 3.10993e+21 2.0681e-05 -0.104953 6.2894 -2.26192 
0.00546875 0.00928125 1.8966 2.97824e+21 1.98053e-05 -5.67615 4.9637 -0.459143 
0.00546875 0.00946875 1.99299 3.00785e+21 2.00022e-05 -0.152549 -1.49077 -1.35077 
0.00546875 0.00965625 2.11243 3.03218e+21 2.0164e-05 -1.13542 1.47855 -0.754798 
0.0120312 0.00928125 1.88464 2.58659e+21 1.72008e-05 -3.0329 1.48142 -1.24572 
0.00546875 0.0100312 1.97711 2.9467e+21 1.95956e-05 -0.497026 -0.0995139 2.606 
0.00546875 0.0102187 1.89836 3.11154e+21 2.06917e-05 -2.69398 4.4141 -1.64209 
0.00546875 0.0104062 2.0009 2.85587e+21 1.89915e-05 1.4295 3.79138 -4.14804 
0.00546875 0.0120938 1.93228 2.95612e+21 1.96582e-05 1.30345 0.445014 2.84021 
0.00546875 0.0124688 1.93366 2.9473e+21 1.95996e-05 -3.66391 -0.487223 -3.83744 
0.00546875 0.0126563 2.01175 2.88926e+21 1.92136e-05 3.29087 -1.21514 1.97097 
0.0185937 0.0216562 2.06719 2.59186e+21 1.72359e-05 -1.60603 -0.149741 -0.33234 
0.00109375 0.00159375 0 0 0 0 0 0 
0.00109375 0.00178125 0 0 0 0 0 0 
0.00328125 0.00178125 0 0 0 0 0 0 
0.00546875 0.00178125 1.95905 3.25164e+21 2.16234e-05 -0.483456 17.5646 5.5646 
0.00546875 0.00196875 2.08538 2.82023e+21 1.87545e-05 2.00516 1.6792 3.71532 
0.00546875 0.00215625 1.77244 3.51977e+21 2.34065e-05 -3.26666 12.7458 3.45079 
0.00546875 0.00234375 1.99076 3.28932e+21 2.1874e-05 4.2478 3.83156 3.15143 
0.00546875 0.00253125 2.15422 3.58221e+21 2.38217e-05 3.44261 3.33944 1.27784 
0.00546875 0.00271875 2.01015 3.58493e+21 2.38398e-05 0.099231 -0.138946 -2.11705 
0.00546875 0.00290625 1.963 3.51858e+21 2.33985e-05 -5.31154 5.18938 0.645133 
0.0120312 0.00271875 2.08161 2.674e+21 1.77821e-05 -3.29468 -2.51029 -2.55433 
0.00984375 0.00290625 2.06011 3.84183e+21 2.55482e-05 -0.135024 15.9301 -2.05797 
0.0120312 0.00290625 2.05651 2.70765e+21 1.80059e-05 -0.420322 2.81488 1.87477 
0.00546875 0.00459375 2.00295 3.28688e+21 2.18578e-05 1.11835 2.84909 -2.97428 
0.00546875 0.00478125 2.04378 3.12457e+21 2.07784e-05 1.74058 3.48422 0.66467 
0.00546875 0.00496875 2.01773 3.52921e+21 2.34692e-05 -0.580792 5.99547 -4.10598 
0.00546875 0.00515625 1.99116 3.61004e+21 2.40068e-05 -1.34508 10.9321 0.867985 
0.0120312 0.00459375 1.99834 2.66081e+21 1.76944e-05 -0.322893 -3.97162 0.275761 
0.0120312 0.00478125 1.88664 2.55229e+21 1.69727e-05 -2.60146 -1.26409 -1.47474 
0.0120312 0.00496875 1.86235 2.70117e+21 1.79628e-05 0.0852672 -3.8557 0.751494 
0.0120312 0.00515625 1.94406 2.81211e+21 1.87005e-05 -4.51645 -0.0935386 -0.0520486 
0.00546875 0.00534375 1.94271 3.42357e+21 2.27667e-05 4.28499 6.80698 2.38185 
0.00546875 0.00553125 2.0426 3.4014e+21 2.26193e-05 -1.11493 0.838904 3.56675 
0.00546875 0.00571875 1.9171 3.234e+21 2.15061e-05 2.40533 3.43861 -3.79831 
0.00546875 0.00590625 2.05073 3.0637e+21 2.03736e-05 1.44741 6.03671 6.73261 
0.0120312 0.00534375 2.00943 2.47424e+21 1.64537e-05 4.20308 0.239652 -2.73985 
0.0120312 0.00553125 1.86957 2.49869e+21 1.66163e-05 -2.23831 -3.24069 -3.4135 
0.0120312 0.00571875 1.91971 2.51456e+21 1.67218e-05 0.346907 -0.702022 -0.108411 
0.0120312 0.00590625 2.05706 2.64777e+21 1.76077e-05 -2.89303 -4.55098 -2.96617 
0.00546875 0.00759375 2.09532 3.12983e+21 2.08134e-05 3.73913 4.78901 -0.665947 
0.00546875 0.00778125 2.12217 3.13655e+21 2.0858e-05 0.519887 -0.735839 3.76659 
0.00546875 0.00796875 1.97301 3.163e+21 2.10339e-05 1.04539 -1.67499 -3.04238 
0.00546875 0.00815625 2.05044 3.12457e+21 2.07784e-05 3.2084 1.44034 -2.01854 
0.0120312 0.00759375 2.01843 2.6117e+21 1.73678e-05 1.7423 0.73397 1.14794 
0.00546875 0.00834375 2.07488 3.10701e+21 2.06616e-05 -6.2539 0.097196 -3.80492 
0.00546875 0.00853125 2.05285 2.98254e+21 1.98339e-05 -0.741649 1.40487 -6.25082 
0.00546875 0.00871875 1.95859 3.01003e+21 2.00167e-05 4.10619 1.29298 1.74958 
0.00546875 0.00890625 1.9871 3.15746e+21 2.09971e-05 -6.99945 2.25096 -1.90137 
0.0120312 0.00871875 1.98812 2.69162e+21 1.78993e-05 2.28666 0.540684 -3.17198 
0.00546875 0.0107812 1.99775 2.97513e+21 1.97846e-05 1.46814 1.77568 0.324214 
0.00546875 0.0109687 1.91767 2.78953e+21 1.85504e-05 -1.5051 -1.09649 -1.07547 
0.00546875 0.0111562 2.04309 2.87155e+21 1.90958e-05 -2.23868 4.30511 2.41657 
0.00546875 0.0113437 2.03084 2.83817e+21 1.88738e-05 0.432896 1.29172 -2.81602 
0.00546875 0.0115312 2.03566 3.01026e+21 2.00182e-05 -1.66592 4.51063 -2.96275 
0.00546875 0.0119063 2.00412 3.01945e+21 2.00793e-05 0.667263 1.53311 2.43698 
0.0185937 0.00159375 1.88904 2.48342e+21 1.65148e-05 0.503514 -2.098 -1.85669 
0.0448437 0.00159375 2.06628 2.53455e+21 1.68548e-05 0.866749 -0.507029 2.49648 
0.0109375 0.0001875 1.99532 6.41335e+21 4.26488e-05 12.4369 2.65471 -0.0954444 
0.0109375 0.0001875 2.03073 2.50321e+21 1.66463e-05 14.7677 -0.196192 0.571608 
0.0153125 0.0001875 1.99556 2.54034e+21 1.68932e-05 2.98806 -0.989307 -0.906854 
0.0109375 0.0005625 2.04765 5.40734e+21 3.59588e-05 6.73041 8.4144 1.20224 
0.0109375 0.0005625 1.84843 2.29017e+21 1.52296e-05 -1.23477 -1.4992 -5.39914 
0.0284375 0.0001875 1.96763 2.45755e+21 1.63427e-05 6.08135 -0.593926 -1.88335 
0.0328125 0.0001875 1.91718 2.72142e+21 1.80974e-05 -0.168017 -0.386279 1.40661 
0.0142187 0.00084375 2.00807 2.46503e+21 1.63924e-05 8.39795 -1.22262 1.08431 
0.0164062 0.00084375 1.96079 2.72717e+21 1.81357e-05 1.85305 -1.01758 -0.104512 
0.0142187 0.00103125 2.05904 2.83712e+21 1.88669e-05 -0.901169 -0.169017 -2.11545 
0.0164062 0.00103125 1.926 2.60383e+21 1.73155e-05 0.520048 1.83746 -1.48245 
0.0142187 0.00121875 2.05933 2.67446e+21 1.77851e-05 1.15341 0.321853 1.19687 
0.0164062 0.00121875 2.09108 2.57576e+21 1.71288e-05 2.02457 -2.08343 0.072527 
0.0142187 0.00140625 1.98651 2.54413e+21 1.69185e-05 1.40639 -3.64678 0.733356 
0.0164062 0.00140625 2.01636 2.59932e+21 1.72855e-05 1.67093 -0.548394 3.59193 
0.0120312 0.00346875 1.9446 2.61404e+21 1.73834e-05 -3.04171 0.587543 -3.85589 
0.0120312 0.00365625 2.00808 2.74219e+21 1.82356e-05 3.14074 -1.45758 -4.20898 
0.0120312 0.00384375 1.99994 2.44735e+21 1.62749e-05 1.6574 -1.33344 0.8926 
0.0120312 0.00403125 1.99879 2.54656e+21 1.69346e-05 0.210742 -1.0419 0.874 
0.0229687 0.00121875 2.01929 2.56939e+21 1.70864e-05 4.12322 -1.88054 0.358094 
0.0251562 0.00121875 2.07901 2.79226e+21 1.85685e-05 3.72937 -1.51274 3.08658 
0.0229687 0.00140625 2.02816 2.5055e+21 1.66616e-05 5.17838 0.359675 0.65283 
0.0251562 0.00140625 1.98352 2.62415e+21 1.74506e-05 1.40646 -1.93705 3.50662 
0.00984375 0.00196875 1.9599 4.39441e+21 2.92228e-05 2.44178 12.9788 2.11844 
0.0120312 0.00196875 1.91743 2.79994e+21 1.86196e-05 2.08779 0.353661 5.69641 
0.0120312 0.00215625 2.02632 2.24154e+21 1.49062e-05 5.11728 -0.334416 0.636191 
0.0207812 0.00196875 2.03182 2.67067e+21 1.77599e-05 3.52119 2.26639 -2.77961 
0.0295312 0.00159375 1.97198 2.51751e+21 1.67414e-05 -2.4875 1.48549 -2.63454 
0.0404687 0.00159375 2.0278 2.60273e+21 1.73081e-05 0.173564 1.17916 2.00387 
0.0426562 0.00159375 2.02493 2.58081e+21 1.71624e-05 2.21674 0.24418 2.92406 
0.0404687 0.00178125 2.00368 2.68166e+21 1.7833e-05 3.19715 -0.876451 2.61254 
0.00273437 0.000984375 1.88033 1.51594e+22 0.00010081 20.4276 -2.72265 -2.42008 
0.00382812 0.000984375 1.97749 1.36234e+22 9.05953e-05 25.1151 0.818354 -1.17662 
0.00273437 0.00107813 2.13101 1.64851e+22 0.000109626 14.9607 -2.91534 -4.50054 
0.00492187 0.000796875 1.86706 1.07128e+22 7.12402e-05 41.6016 -0.393006 -2.77677 
0.00601562 0.000796875 1.82289 8.88189e+21 5.90646e-05 41.7329 -2.16569 -5.43945 
0.00492187 0.000890625 1.88783 1.11536e+22 7.41716e-05 34.8165 -2.6965 -0.625334 
0.00601562 0.000890625 1.84256 8.87061e+21 5.89896e-05 47.2304 -0.53789 -1.18669 
0.00492187 0.000984375 2.01343 1.08167e+22 7.1931e-05 33.6253 0.603374 -1.32143 
0.00601562 0.000984375 1.80223 8.35692e+21 5.55735e-05 45.8964 9.13867 2.22194 
0.00492187 0.00107813 1.86438 1.12582e+22 7.48669e-05 34.2028 3.39535 0.188063 
0.00601562 0.00107813 1.84422 8.07652e+21 5.37089e-05 38.7743 5.29958 1.87021 
0.00273437 0.00117188 1.89121 1.45939e+22 9.70497e-05 26.2157 -0.168361 9.45745 
0.00273437 0.00126563 2.00443 1.55001e+22 0.000103076 21.9938 -6.03081 -6.79868 
0.00273437 0.00135937 1.89042 1.55412e+22 0.000103349 16.772 -1.23647 5.09348 
0.00273437 0.00145312 1.93182 1.69617e+22 0.000112795 20.2702 -0.943081 -5.11906 
0.00492187 0.00117188 1.92989 1.06622e+22 7.09034e-05 33.0132 3.15878 5.35828 
0.00601562 0.00117188 1.84922 8.39728e+21 5.58419e-05 40.5235 4.29107 2.37814 
0.00492187 0.00126563 1.99613 1.02526e+22 6.81795e-05 26.7515 0.938257 -0.146796 
0.00601562 0.00126563 1.8272 8.37619e+21 5.57017e-05 35.7585 0.286858 1.24048 
0.00492187 0.00135937 1.93129 1.08586e+22 7.22094e-05 25.339 2.59991 1.02037 
0.00601562 0.00135937 1.93678 8.15248e+21 5.4214e-05 33.0564 5.9704 0.669319 
0.00601562 0.00145312 1.89172 7.95764e+21 5.29183e-05 28.5228 3.34129 -4.47919 
0.00710937 0.00135937 1.79439 4.69281e+21 3.12072e-05 42.1902 17.2422 3.19867 
0.00820312 0.00135937 1.99527 4.39594e+21 2.9233e-05 21.5743 11.5575 -0.767118 
0.00710937 0.00145312 1.93075 4.593e+21 3.05434e-05 35.4474 20.1701 -0.576447 
0.00820312 0.00145312 1.92976 4.83867e+21 3.21772e-05 24.5007 21.8969 -0.631005 
0.00710937 0.00342187 1.96469 3.4836e+21 2.31659e-05 1.0792 5.34015 -0.402578 
0.00820312 0.00342187 1.95407 3.85554e+21 2.56394e-05 0.271674 15.797 1.93244 
0.00710937 0.00351562 1.85728 3.62911e+21 2.41336e-05 -3.24336 11.1744 -3.28559 
0.00820312 0.00351562 2.01383 3.60703e+21 2.39868e-05 -1.45436 13.1678 2.54342 
0.00710937 0.00360937 1.97445 3.52195e+21 2.34209e-05 0.170666 12.3443 -0.00301618 
0.00820312 0.00360937 1.94715 3.91327e+21 2.60233e-05 -3.37694 10.9629 -1.99981 
0.00710937 0.00370312 1.9984 3.58787e+21 2.38593e-05 0.838725 4.47207 -1.18572 
0.00820312 0.00370312 2.0109 3.59625e+21 2.39151e-05 -0.549307 14.6687 0.495979 
0.0158594 0.00342187 2.09618 2.57641e+21 1.71331e-05 -0.75078 -4.17519 1.17687 
0.0169531 0.00342187 1.93832 2.64898e+21 1.76158e-05 0.22342 1.56262 -0.958612 
0.0158594 0.00351562 2.05444 2.59159e+21 1.72341e-05 -0.793398 6.69772 0.453873 
0.0169531 0.00351562 1.96344 2.51654e+21 1.6735e-05 2.41141 -3.12041 0.851003 
0.00710937 0.00379687 2.00815 3.47884e+21 2.31343e-05 0.112113 4.33181 3.02316 
0.00820312 0.00379687 2.04901 3.63009e+21 2.41401e-05 -4.51119 13.2585 -0.665451 
0.00710937 0.00389062 2.03779 3.36708e+21 2.23911e-05 3.78627 8.77646 2.90641 
0.00820312 0.00389062 1.9418 3.33118e+21 2.21523e-05 0.0423116 10.5567 -1.03462 
0.00710937 0.00398438 1.90787 3.66573e+21 2.43771e-05 -0.000388482 9.93808 -3.95981 
0.00820312 0.00398438 1.93155 3.5177e+21 2.33927e-05 -1.32946 10.4398 0.262311 
0.00710937 0.00407813 1.91558 3.49773e+21 2.32599e-05 -5.1469 7.04685 -1.49068 
0.00820312 0.00407813 1.94111 3.4825e+21 2.31586e-05 -1.81978 11.5274 3.64604 
0.00710937 0.00417188 2.11714 3.46377e+21 2.30341e-05 -2.811 5.44876 0.541215 
0.00820312 0.00417188 2.0187 3.55678e+21 2.36526e-05 -0.670496 10.1803 -3.72832 
0.00710937 0.00426563 1.96096 3.45314e+21 2.29634e-05 -0.760852 7.92683 -0.792572 
0.00820312 0.00426563 2.03045 3.46042e+21 2.30118e-05 -0.166384 11.3309 1.09847 
0.00820312 0.00445313 1.94872 3.26243e+21 2.16952e-05 1.21667 12.3537 -2.59278 
0.0158594 0.00398438 1.96974 2.5477e+21 1.69422e-05 2.62381 -3.35005 4.61765 
0.0169531 0.00398438 1.9904 2.51654e+21 1.6735e-05 2.02947 1.94086 0.328831 
0.0158594 0.00407813 2.09669 2.64137e+21 1.75651e-05 2.32245 -0.0487752 -1.58222 
0.0169531 0.00407813 1.94023 2.59951e+21 1.72867e-05 0.845798 -0.0492635 2.21418 
0.0147656 0.00614063 2.00177 2.51249e+21 1.67081e-05 0.851818 -0.554327 0.460345 
0.0158594 0.00623438 2.00711 2.66143e+21 1.76985e-05 1.44109 -3.76666 2.45686 
0.0169531 0.00670313 1.99829 2.66519e+21 1.77235e-05 0.285125 -2.60451 3.90915 
0.0103906 0.00942187 0 0 0 0 0 0 
0.0103906 0.00951562 1.99503 2.664e+21 1.77156e-05 -0.846296 1.26786 -0.0336873 
0.00820312 0.0127031 2.02967 2.84117e+21 1.88938e-05 2.93372 2.09953 -3.15436 
0.0103906 0.0127031 2.09886 3.02219e+21 2.00975e-05 2.4147 -2.63776 -1.02881 
0.0114844 0.0127031 2.04587 2.92512e+21 1.94521e-05 4.28605 -1.51619 -3.14297 
0.0125781 0.0127031 1.99283 2.56571e+21 1.7062e-05 4.6559 2.36906 -2.47119 
0.0158594 0.0127031 2.04595 2.54735e+21 1.69399e-05 -2.93828 2.34962 1.23785 
0.0169531 0.0127031 1.9918 2.69951e+21 1.79517e-05 0.295125 -3.33104 -1.61529 
0.0224219 0.00323438 1.93382 2.66818e+21 1.77434e-05 -0.961845 -4.98774 2.34812 
0.0235156 0.00323438 1.89644 2.5914e+21 1.72328e-05 1.3705 1.1248 0.144976 
0.0224219 0.00332813 2.02282 2.60701e+21 1.73366e-05 3.61772 2.08599 -1.40894 
0.0235156 0.00332813 1.93962 2.53706e+21 1.68714e-05 2.33994 -1.52621 0.55731 
0.0224219 0.00360937 1.92853 2.55438e+21 1.69866e-05 2.34953 -2.7196 1.30184 
0.0235156 0.00360937 2.00772 2.40817e+21 1.60143e-05 0.599905 0.301739 -0.560265 
0.0224219 0.00370312 2.03904 2.63222e+21 1.75043e-05 8.33004 1.11698 3.39678 
0.0235156 0.00370312 2.07321 2.56516e+21 1.70583e-05 6.17003 -2.99927 -3.66581 
0.0180469 0.00398438 2.06088 2.68405e+21 1.78489e-05 4.26055 2.16768 -1.20364 
0.0191406 0.00398438 1.95088 2.84376e+21 1.8911e-05 2.50632 -0.0719013 0.763267 
0.0180469 0.00407813 2.0519 2.77458e+21 1.8451e-05 1.0278 -1.04642 -1.83779 
0.0191406 0.00407813 1.99625 2.55764e+21 1.70083e-05 -0.910268 -6.67113 0.582591 
0.0246094 0.00379687 2.09292 2.62855e+21 1.74798e-05 -0.841613 1.56609 -0.887727 
0.0257031 0.00379687 2.01661 2.65307e+21 1.76429e-05 5.57186 3.38854 -2.5866 
0.0246094 0.00389062 2.00943 2.54127e+21 1.68994e-05 3.09239 -1.97269 1.91886 
0.0257031 0.00389062 2.06836 2.68888e+21 1.7881e-05 -0.983415 2.23863 0.534961 
0.0202344 0.00435938 2.00295 2.50657e+21 1.66687e-05 3.93286 -4.15652 3.01466 
0.0213281 0.00435938 1.96068 2.68815e+21 1.78762e-05 -3.03279 2.03555 -1.23057 
0.0202344 0.00445313 2.03375 2.56185e+21 1.70363e-05 0.9863 1.21676 -0.956908 
0.0213281 0.00445313 2.03879 2.60367e+21 1.73144e-05 0.371147 0.199019 0.187835 
0.0246094 0.00435938 2.02617 2.46384e+21 1.63845e-05 -3.47475 -0.973586 1.06796 
0.0257031 0.00435938 1.97105 2.75224e+21 1.83024e-05 -0.191278 -1.3363 2.46807 
0.0246094 0.00445313 1.95156 2.55139e+21 1.69667e-05 -2.6082 3.23653 -2.7016 
0.0257031 0.00445313 1.94852 2.72567e+21 1.81257e-05 0.807911 0.359364 -2.1245 
0.0267969 0.00435938 1.91633 2.55641e+21 1.70001e-05 1.85778 2.04145 -5.47196 
0.0278906 0.00435938 2.03389 2.69883e+21 1.79472e-05 3.08284 -1.71119 2.36003 
0.0267969 0.00445313 1.99365 2.5967e+21 1.72681e-05 4.97349 -3.2374 2.27788 
0.0278906 0.00445313 1.95776 2.77098e+21 1.8427e-05 6.36567 -0.500889 -1.72545 
0.0289844 0.00435938 2.01305 2.57065e+21 1.70949e-05 4.65104 -0.898416 0.831363 
0.0300781 0.00435938 1.93061 2.70239e+21 1.79709e-05 2.36068 0.957038 -1.38892 
0.0289844 0.00445313 1.95339 2.68035e+21 1.78244e-05 5.67102 0.433461 1.59563 
0.0300781 0.00445313 2.01627 2.49562e+21 1.65959e-05 3.26072 -0.0568687 2.18198 
0.0180469 0.00604688 1.84144 2.50524e+21 1.66599e-05 4.23757 -4.37785 0.614979 
0.0191406 0.00614063 2.01159 2.59338e+21 1.7246e-05 0.46164 -0.101196 1.06233 
0.0213281 0.00604688 1.8648 2.56941e+21 1.70866e-05 -3.56393 1.9187 -1.8725 
0.0202344 0.00614063 2.00085 2.6136e+21 1.73804e-05 -0.594334 -2.31633 0.428796 
0.0191406 0.00632813 2.0444 2.57785e+21 1.71427e-05 3.17688 -5.519 1.2853 
0.0213281 0.00632813 1.95292 2.54106e+21 1.68981e-05 4.52616 -3.71718 -0.4542 
0.0224219 0.00614063 1.9602 2.71976e+21 1.80864e-05 3.48802 2.61887 0.678992 
0.0257031 0.00604688 2.03287 2.56171e+21 1.70354e-05 -0.159304 3.63806 -5.27395 
0.0257031 0.00632813 1.98581 2.51654e+21 1.6735e-05 2.48206 2.29437 2.54413 
0.0180469 0.00660938 1.9665 2.51278e+21 1.671e-05 2.38193 -0.811777 -3.38289 
0.0278906 0.00614063 1.9995 2.57821e+21 1.71451e-05 -0.566689 1.91297 2.6385 
0.0289844 0.00604688 2.02429 2.69262e+21 1.79059e-05 1.897 -4.42203 -2.08004 
0.0322656 0.00604688 2.03042 2.66695e+21 1.77352e-05 -0.469706 0.428228 2.25168 
0.0311719 0.00614063 2 2.67426e+21 1.77838e-05 0.41305 -0.851613 0.11716 
0.0344531 0.00614063 2.08427 2.57316e+21 1.71115e-05 0.92988 -3.16658 0.973378 
0.0311719 0.00623438 2.05039 2.5967e+21 1.72681e-05 -0.699939 -3.1849 1.45227 
0.0322656 0.00623438 2.05499 2.67139e+21 1.77648e-05 2.1484 2.30905 0.143498 
0.0311719 0.00632813 2.11632 2.65389e+21 1.76484e-05 1.5453 -0.837209 -0.935022 
0.0333594 0.00623438 2.0844 2.61164e+21 1.73674e-05 0.286395 0.701503 -1.65463 
0.0344531 0.00623438 1.93947 2.71372e+21 1.80462e-05 1.54719 -2.91078 3.66003 
0.0289844 0.00660938 2.08812 2.71474e+21 1.8053e-05 3.98236 0.74464 -3.77185 
0.0300781 0.00660938 2.02928 2.45407e+21 1.63196e-05 2.8922 -1.29042 -0.513978 
0.0311719 0.00642188 2.01572 2.59823e+21 1.72782e-05 1.4963 -3.02089 -0.65255 
0.0311719 0.00660938 2.01374 2.63959e+21 1.75533e-05 0.866224 -0.474525 0.586391 
0.0202344 0.00698437 1.91372 2.42675e+21 1.61379e-05 -0.0497888 -0.129281 -0.056099 
0.0257031 0.00689062 1.978 2.70079e+21 1.79603e-05 -2.03454 -0.409395 -0.105381 
0.0235156 0.00707812 2.04301 2.73231e+21 1.81699e-05 2.10396 0.423731 0.194224 
0.0267969 0.00679687 2.07713 2.69009e+21 1.78891e-05 2.41617 -1.75761 -4.30995 
0.0300781 0.00707812 1.92671 2.62267e+21 1.74408e-05 2.65732 -2.02944 -1.10008 
0.0344531 0.00726562 1.99458 2.62762e+21 1.74737e-05 2.12769 3.69927 2.32067 
0.0180469 0.0127031 2.00364 2.64704e+21 1.76028e-05 3.15866 -2.86415 -3.50428 
0.0180469 0.0129844 0 0 0 0 0 0 
0.0180469 0.0130781 0 0 0 0 0 0 
0.0180469 0.0152344 0 0 0 0 0 0 
0.0180469 0.0153281 0 0 0 0 0 0 
0.0180469 0.0161719 0 0 0 0 0 0 
0.0180469 0.0162656 0 0 0 0 0 0 
0.0180469 0.0182344 0 0 0 0 0 0 
0.0180469 0.0183281 0 0 0 0 0 0 
0.0180469 0.0184219 0 0 0 0 0 0 
0.0180469 0.0185156 0 0 0 0 0 0 
0.0180469 0.0193594 0 0 0 0 0 0 
0.0180469 0.0194531 0 0 0 0 0 0 
0.0180469 0.0210469 0 0 0 0 0 0 
0.0180469 0.0211406 0 0 0 0 0 0 
0.0180469 0.0212344 0 0 0 0 0 0 
0.0180469 0.0213281 0 0 0 0 0 0 
0.0180469 0.0214219 0 0 0 0 0 0 
0.0180469 0.0215156 0 0 0 0 0 0 
0.00492187 0.00154688 1.95105 1.04962e+22 6.97997e-05 12.7672 1.05133 -1.22278 
0.00601562 0.00154688 2.02465 8.22994e+21 5.47291e-05 17.3105 2.45231 0.205095 
0.00492187 0.00164063 0 0 0 0 0 0 
0.00601562 0.00164063 2.11594 2.97037e+21 1.9753e-05 30.5601 22.7611 -5.47716 
0.00710937 0.00173438 1.9725 3.6871e+21 2.45192e-05 17.4366 22.9736 -4.04389 
0.00820312 0.00173438 2.07275 4.25985e+21 2.8328e-05 17.1322 17.4785 -4.06331 
0.00710937 0.00182813 1.86115 4.04989e+21 2.69318e-05 11.2645 23.5918 1.84694 
0.00820312 0.00182813 1.92748 4.17725e+21 2.77787e-05 7.97823 20.1392 -2.11661 
0.00710937 0.00248438 1.96684 3.86102e+21 2.56758e-05 2.43207 13.4803 -1.04272 
0.00820312 0.00248438 1.96978 3.76731e+21 2.50526e-05 3.99523 13.3614 0.336385 
0.00710937 0.00257813 1.84224 3.66042e+21 2.43418e-05 0.719043 7.81351 3.8045 
0.00820312 0.00257813 2.03937 4.08787e+21 2.71843e-05 2.06367 15.7673 0.808115 
0.00710937 0.00285937 1.98244 3.64235e+21 2.42217e-05 1.46756 7.41314 0.355843 
0.00820312 0.00285937 2.01134 3.72378e+21 2.47631e-05 -2.32529 17.3738 1.93025 
0.00710937 0.00295313 2.03751 3.68966e+21 2.45362e-05 -3.07348 13.7847 2.26465 
0.00820312 0.00295313 1.93023 3.92092e+21 2.60741e-05 -4.6031 18.0379 0.0640747 
0.00820312 0.00454687 1.96084 3.47509e+21 2.31093e-05 1.65613 12.2298 -5.38454 
0.00820312 0.00473437 1.93708 3.41286e+21 2.26955e-05 -4.39412 8.18951 1.9757 
0.00820312 0.00510937 1.98873 3.42059e+21 2.27469e-05 -0.21948 7.25841 -2.24436 
0.00929687 0.00454687 1.96903 3.4321e+21 2.28235e-05 3.27209 9.9247 1.60471 
0.0103906 0.00454687 0 0 0 0 0 0 
0.00929687 0.00464062 2.04505 3.28304e+21 2.18322e-05 -1.3044 9.5286 0.444078 
0.0103906 0.00464062 0 0 0 0 0 0 
0.0158594 0.00454687 2.00097 2.5773e+21 1.7139e-05 6.101 -3.0083 1.99616 
0.0169531 0.00454687 2.10781 2.53292e+21 1.68439e-05 3.26695 0.0801424 -2.98955 
0.0169531 0.00464062 2.00881 2.61219e+21 1.73711e-05 -0.181567 -3.04899 0.580613 
0.0147656 0.00492187 1.93479 2.58907e+21 1.72173e-05 0.375516 -0.108854 2.03389 
0.0136719 0.00501562 1.90763 2.52211e+21 1.6772e-05 -1.6372 0.126412 0.847928 
0.0147656 0.00501562 2.03411 2.53758e+21 1.68749e-05 4.64028 -5.97154 -2.80636 
0.0169531 0.00492187 1.98828 2.67106e+21 1.77625e-05 1.47303 -6.00614 -2.94236 
0.0158594 0.00501562 1.93962 2.47569e+21 1.64633e-05 1.87544 -2.25257 5.56951 
0.0169531 0.00501562 1.99192 2.48188e+21 1.65045e-05 -2.86679 -1.88245 3.65042 
0.0136719 0.00510937 1.94231 2.59734e+21 1.72723e-05 1.53039 -1.23241 0.210639 
0.0136719 0.00520312 2.05455 2.69373e+21 1.79133e-05 1.52885 1.80292 0.21163 
0.00710937 0.00539062 1.94453 3.1903e+21 2.12155e-05 0.981453 8.63542 -0.62793 
0.0136719 0.00529687 1.93531 2.56694e+21 1.70701e-05 4.83985 0.130831 0.922221 
0.0147656 0.00529687 1.94182 2.75448e+21 1.83173e-05 2.02519 1.14805 1.92657 
0.0136719 0.00539062 2.10287 2.60292e+21 1.73094e-05 -1.93634 0.532139 -2.38386 
0.0147656 0.00548437 1.99247 2.56408e+21 1.70511e-05 -3.50404 0.130613 2.07984 
0.0136719 0.00557812 1.99004 2.58499e+21 1.71902e-05 0.542563 -2.18386 -2.47286 
0.0147656 0.00557812 2.0712 2.57664e+21 1.71346e-05 -1.49902 -0.832806 -0.667263 
0.0158594 0.00548437 2.03586 2.56125e+21 1.70323e-05 3.38008 0.0422203 -3.28572 
0.0169531 0.00548437 1.9683 2.65748e+21 1.76722e-05 2.00593 0.0941554 -1.14081 
0.0158594 0.00557812 2.01865 2.64342e+21 1.75787e-05 0.520932 -0.77537 3.80037 
0.0169531 0.00557812 1.88719 2.59333e+21 1.72457e-05 0.972047 -0.879116 1.61165 
0.0158594 0.00567187 2.04971 2.64625e+21 1.75976e-05 0.252042 1.4335 0.397307 
0.0169531 0.00567187 2.02239 2.64898e+21 1.76158e-05 2.51759 -0.21905 -1.34514 
0.0158594 0.00576562 2.07723 2.49554e+21 1.65953e-05 -2.10323 0.905985 -0.678827 
0.0169531 0.00576562 2.00743 2.56284e+21 1.70429e-05 5.3131 -0.222202 -0.293459 
0.00929687 0.00754687 1.97341 3.26174e+21 2.16906e-05 1.70301 3.56284 -3.10817 
0.0103906 0.00754687 0 0 0 0 0 0 
0.0103906 0.00764062 0 0 0 0 0 0 
0.0169531 0.00773437 1.90393 2.60684e+21 1.73355e-05 -0.620305 -2.61597 2.37069 
0.0103906 0.00867188 0 0 0 0 0 0 
0.0103906 0.00876563 0 0 0 0 0 0 
0.0202344 0.00473437 1.99093 2.54407e+21 1.69181e-05 4.66601 2.40813 -0.702791 
0.0213281 0.00473437 2.08558 2.4949e+21 1.65911e-05 0.25896 4.52541 3.01716 
0.0213281 0.00482812 1.90679 2.69399e+21 1.7915e-05 -0.412033 -2.77232 -5.5055 
0.0224219 0.00473437 1.92235 2.81946e+21 1.87494e-05 3.12835 -1.33089 -0.363495 
0.0235156 0.00473437 1.92415 2.34737e+21 1.561e-05 1.10481 -1.49152 0.0781632 
0.0224219 0.00482812 1.94166 2.47217e+21 1.64399e-05 1.19625 0.514262 0.968641 
0.0235156 0.00482812 2.03509 2.66827e+21 1.7744e-05 2.75662 0.890176 0.550603 
0.0180469 0.00492187 2.10468 2.76882e+21 1.84127e-05 0.0382514 -5.01784 0.881639 
0.0191406 0.00492187 1.95382 2.63322e+21 1.75109e-05 0.122939 1.18684 2.81462 
0.0180469 0.00501562 2.08128 2.4695e+21 1.64222e-05 1.61901 3.97601 -4.57779 
0.0191406 0.00501562 2.01664 2.56543e+21 1.70601e-05 5.71502 -2.07415 4.02652 
0.0224219 0.00492187 1.97312 2.56384e+21 1.70495e-05 3.63663 -0.550125 -0.607292 
0.0235156 0.00492187 2.12743 2.68367e+21 1.78464e-05 1.00326 1.42646 -2.32701 
0.0224219 0.00501562 1.97057 2.64898e+21 1.76158e-05 2.69461 -2.77818 -1.82643 
0.0235156 0.00501562 1.9998 2.59019e+21 1.72247e-05 1.61495 -0.0738912 1.4993 
0.0246094 0.00492187 2.01415 2.80666e+21 1.86643e-05 -0.467383 -1.29133 -3.57872 
0.0257031 0.00492187 1.97024 2.58276e+21 1.71754e-05 -0.325779 0.112802 0.0408646 
0.0246094 0.00501562 1.97387 2.73873e+21 1.82125e-05 4.72503 -0.947704 -0.592265 
0.0257031 0.00501562 1.96733 2.62423e+21 1.74511e-05 3.19567 -0.808571 0.131111 
0.0224219 0.00510937 2.01329 2.46672e+21 1.64037e-05 0.861555 1.01887 3.47306 
0.0235156 0.00510937 2.0324 2.58823e+21 1.72117e-05 1.29058 -0.275467 3.05979 
0.0235156 0.00520312 1.89127 2.58037e+21 1.71595e-05 5.19142 0.74031 -0.592147 
0.0311719 0.00473437 1.96968 2.60309e+21 1.73105e-05 2.73253 -1.9758 -2.609 
0.0322656 0.00473437 2.064 2.56702e+21 1.70707e-05 -3.20518 2.26489 -6.12489 
0.0322656 0.00482812 1.94151 2.75186e+21 1.82999e-05 0.472254 -0.00103207 1.37884 
0.0311719 0.00492187 2.0993 2.71836e+21 1.80771e-05 -0.855031 -0.566647 1.33444 
0.0333594 0.00492187 2.04865 2.6616e+21 1.76996e-05 3.19537 -0.204616 0.00933957 
0.0344531 0.00501562 1.91035 2.55615e+21 1.69984e-05 3.44973 -1.53101 -1.09965 
0.0333594 0.00510937 2.0122 2.47583e+21 1.64643e-05 0.00526208 0.107462 0.606243 
0.0344531 0.00510937 1.92704 2.52747e+21 1.68077e-05 3.61831 -2.41141 0.815294 
0.0333594 0.00520312 2.05624 2.57739e+21 1.71396e-05 1.53725 -1.29201 -0.178596 
0.0344531 0.00520312 1.90236 2.55949e+21 1.70206e-05 3.91186 1.32664 -4.21775 
0.0202344 0.00529687 1.98106 2.62847e+21 1.74793e-05 3.5669 -1.16333 -0.209835 
0.0213281 0.00529687 1.94096 2.44679e+21 1.62712e-05 3.64255 4.68517 -3.94827 
0.0213281 0.00539062 1.96575 2.6058e+21 1.73285e-05 2.45354 -0.565389 -0.855463 
0.0202344 0.00548437 1.9951 2.57823e+21 1.71452e-05 1.06856 3.00036 1.73147 
0.0213281 0.00557812 1.96643 2.73246e+21 1.81709e-05 -0.376747 5.51096 0.364483 
0.0224219 0.00529687 1.96839 2.59917e+21 1.72845e-05 3.91023 -1.89363 0.456827 
0.0235156 0.00529687 1.94857 2.66657e+21 1.77327e-05 0.867265 -2.07087 2.61702 