ITEM: TIMESTEP
2600000
ITEM: NUMBER OF SURFS
22
ITEM: BOX BOUNDS oo ao pp
0 0.35
0 0.03
-0.1 0.1
ITEM: SURFS id v1x v1y v2x v2y 
1 0.00635 0.00159 0.00318 0.00159 
2 0.00635 0.0127 0.00635 0.00159 
3 0.01905 0.0127 0.00635 0.0127 
4 0.01905 0.02159 0.01905 0.0127 
5 0.0635 0.02159 0.01905 0.02159 
6 0.0635 0.0035 0.0635 0.02159 
7 0.06509 0.0035 0.0635 0.0035 
8 0.06509 0.0254 0.06509 0.0035 
9 0 0.0254 0.06509 0.0254 
10 0 0 0 0.0254 
11 0.00318 0 0 0 
12 0.00318 0.00159 0.00318 0 
13 0.00953 0 0.00953 0.00953 
14 0.00953 0.00953 0.0127 0.00953 
15 0.0127 0.00953 0.0127 0 
16 0.0127 0 0.00953 0 
17 0.08779 0.0127 0.06779 0.0127 
18 0.08779 0.0044 0.08779 0.0127 
19 0.08839 0.0044 0.08779 0.0044 
20 0.08839 0.02223 0.08839 0.0044 
21 0.06779 0.02223 0.08839 0.02223 
22 0.06779 0.0127 0.06779 0.02223 
