ITEM: TIMESTEP
510000
ITEM: NUMBER OF SURFS
38
ITEM: BOX BOUNDS oo ao pp
0 0.35
0 0.03
-0.1 0.1
ITEM: SURFS id v1x v1y v2x v2y 
1 0.00635 0.00159 0.00318 0.00159 
9 0 0.0254 0.06509 0.0254 
17 0.07909 0.0127 0.06909 0.0127 
25 0.07969 0.00084 0.08017 0.00084 
33 0.07969 0.00326 0.08017 0.00326 
2 0.00635 0.0127 0.00635 0.00159 
10 0 0 0 0.0254 
18 0.07909 0.0045 0.07909 0.0127 
26 0.07969 0.00036 0.07969 0.00084 
34 0.07969 0.00278 0.07969 0.00326 
3 0.01905 0.0127 0.00635 0.0127 
11 0.00318 0 0 0 
19 0.07969 0.0045 0.07909 0.0045 
27 0.08017 0.00157 0.07969 0.00157 
35 0.08017 0.00399 0.07969 0.00399 
4 0.01905 0.02159 0.01905 0.0127 
12 0.00318 0.00159 0.00318 0 
20 0.07969 0.02223 0.07969 0.0045 
28 0.08017 0.00205 0.08017 0.00157 
36 0.08017 0.00447 0.08017 0.00399 
5 0.0635 0.02159 0.01905 0.02159 
13 0.00953 0 0.00953 0.00953 
21 0.06909 0.02223 0.07969 0.02223 
29 0.07969 0.00205 0.08017 0.00205 
37 0.07969 0.00447 0.08017 0.00447 
6 0.0635 0.0035 0.0635 0.02159 
14 0.00953 0.00953 0.0127 0.00953 
22 0.06909 0.0127 0.06909 0.02223 
30 0.07969 0.00157 0.07969 0.00205 
38 0.07969 0.00399 0.07969 0.00447 
7 0.06509 0.0035 0.0635 0.0035 
15 0.0127 0.00953 0.0127 0 
23 0.08017 0.00036 0.07969 0.00036 
31 0.08017 0.00278 0.07969 0.00278 
8 0.06509 0.0254 0.06509 0.0035 
16 0.0127 0 0.00953 0 
24 0.08017 0.00084 0.08017 0.00036 
32 0.08017 0.00326 0.08017 0.00278 
