ITEM: TIMESTEP
500000
ITEM: NUMBER OF CELLS
15026
ITEM: BOX BOUNDS oo ao pp
0 0.12
0 0.03
-0.1 0.1
ITEM: CELLS xc yc f_out[1] f_out[2] f_out[3] f_out[4] f_out[5] f_out[6] 
0.003 0.00375 0 0 0 0 0 0 
0.003 0.00525 0 0 0 0 0 0 
0.003 0.00675 0 0 0 0 0 0 
0.003 0.00825 0 0 0 0 0 0 
0.003 0.00975 0 0 0 0 0 0 
0.003 0.01125 0 0 0 0 0 0 
0.003 0.01275 0 0 0 0 0 0 
0.003 0.01425 0 0 0 0 0 0 
0.003 0.01575 0 0 0 0 0 0 
0.003 0.01725 0 0 0 0 0 0 
0.003 0.01875 0 0 0 0 0 0 
0.003 0.02025 0 0 0 0 0 0 
0.003 0.02175 0 0 0 0 0 0 
0.003 0.02325 0 0 0 0 0 0 
0.027 0.02325 0 0 0 0 0 0 
0.003 0.02475 0 0 0 0 0 0 
0.027 0.02475 0 0 0 0 0 0 
0.003 0.02625 0 0 0 0 0 0 
0.027 0.02625 0 0 0 0 0 0 
0.003 0.02775 0 0 0 0 0 0 
0.027 0.02775 0 0 0 0 0 0 
0.003 0.02925 0 0 0 0 0 0 
0.027 0.02925 0 0 0 0 0 0 
0.009 0.01425 0 0 0 0 0 0 
0.009 0.01575 0 0 0 0 0 0 
0.009 0.01725 0 0 0 0 0 0 
0.009 0.01875 0 0 0 0 0 0 
0.009 0.02025 0 0 0 0 0 0 
0.009 0.02175 0 0 0 0 0 0 
0.009 0.02325 0 0 0 0 0 0 
0.009 0.02475 0 0 0 0 0 0 
0.009 0.02625 0 0 0 0 0 0 
0.009 0.02775 0 0 0 0 0 0 
0.009 0.02925 0 0 0 0 0 0 
0.015 0.01425 0 0 0 0 0 0 
0.015 0.01575 0 0 0 0 0 0 
0.015 0.01725 0 0 0 0 0 0 
0.015 0.01875 0 0 0 0 0 0 
0.015 0.02025 0 0 0 0 0 0 
0.015 0.02175 0 0 0 0 0 0 
0.015 0.02325 0 0 0 0 0 0 
0.015 0.02475 0 0 0 0 0 0 
0.015 0.02625 0 0 0 0 0 0 
0.015 0.02775 0 0 0 0 0 0 
0.015 0.02925 0 0 0 0 0 0 
0.021 0.02325 0 0 0 0 0 0 
0.021 0.02475 0 0 0 0 0 0 
0.021 0.02625 0 0 0 0 0 0 
0.021 0.02775 0 0 0 0 0 0 
0.021 0.02925 0 0 0 0 0 0 
0.0015 0.000375 0 0 0 0 0 0 
0.0015 0.001125 0 0 0 0 0 0 
0.0255 0.022125 0 0 0 0 0 0 
0.0285 0.022125 0 0 0 0 0 0 
0.0105 0.000375 1.9611 1.48411e+21 9.86934e-06 -1.71231 -1.76095 -4.00486 
0.0105 0.001125 1.94319 1.51258e+21 1.00587e-05 5.42815 8.30724 -2.33693 
0.0105 0.001875 1.92805 1.41364e+21 9.40073e-06 0.642592 10.7368 -1.58565 
0.0105 0.002625 1.87414 1.3209e+21 8.78402e-06 2.79747 9.36538 0.904538 
0.0105 0.003375 2.0458 1.20176e+21 7.99172e-06 2.55637 3.94006 -1.037 
0.0075 0.013125 0 0 0 0 0 0 
0.0105 0.013125 0 0 0 0 0 0 
0.0135 0.013125 0 0 0 0 0 0 
0.0165 0.013125 0 0 0 0 0 0 
0.0195 0.022125 0 0 0 0 0 0 
0.0225 0.022125 0 0 0 0 0 0 
0.00375 0.0001875 1.89496 4.20126e+21 2.79384e-05 16.9405 0.774881 4.49792 
0.00525 0.0001875 2.09309 3.25949e+21 2.16756e-05 31.6347 4.95111 2.86191 
0.00375 0.0005625 1.99621 4.23556e+21 2.81665e-05 20.2035 -3.2497 0.210488 
0.00525 0.0005625 1.81482 3.20919e+21 2.13411e-05 32.8417 -1.73466 -2.65553 
0.00675 0.0024375 1.96579 1.20974e+21 8.04479e-06 2.36905 7.67873 4.44441 
0.00825 0.0024375 2.0068 1.33026e+21 8.84625e-06 4.72831 10.1131 -3.66365 
0.00675 0.0031875 2.03481 1.11151e+21 7.39152e-06 -1.69118 5.45863 2.7293 
0.01125 0.0091875 0 0 0 0 0 0 
0.01875 0.0129375 2.08389 7.94607e+20 5.28414e-06 -2.76055 -1.96998 -0.257844 
0.00675 0.0009375 1.89696 2.13678e+21 1.42096e-05 37.2802 7.7939 2.78503 
0.00825 0.0009375 1.90646 1.57542e+21 1.04766e-05 17.6881 12.8605 0.118476 
0.00825 0.0013125 2.13484 1.53058e+21 1.01784e-05 11.4575 8.90339 -2.06604 
0.00675 0.0016875 1.93321 1.45543e+21 9.67862e-06 16.3862 13.0214 1.24506 
0.00675 0.0020625 1.92247 1.28118e+21 8.51985e-06 9.34762 7.66936 3.75039 
0.00825 0.0020625 1.98076 1.38693e+21 9.22309e-06 3.1051 13.4359 -1.24011 
0.01275 0.0054375 2.00197 8.41021e+20 5.59279e-06 2.48037 -1.93578 1.12812 
0.01275 0.0058125 1.91668 8.20532e+20 5.45654e-06 1.86718 -2.62619 0.290205 
0.02175 0.0039375 1.96981 8.69486e+20 5.78208e-06 0.17848 -2.81727 2.88391 
0.024375 0.0169687 1.99495 8.18375e+20 5.44219e-06 -0.763472 1.66663 -0.340539 
0.025875 0.0192187 1.99666 8.29743e+20 5.51779e-06 -3.89125 -2.19014 -1.2735 
0.007875 0.00534375 1.92908 1.15427e+21 7.67591e-06 -0.51767 3.76065 -0.61702 
0.008625 0.00534375 2.03266 1.15639e+21 7.68999e-06 -0.823009 5.47099 6.28743 
0.007875 0.00553125 1.99659 1.2195e+21 8.10965e-06 0.949789 3.07848 -4.17051 
0.008625 0.00553125 1.97538 1.13356e+21 7.53817e-06 -0.775818 3.68685 2.25558 
0.007875 0.0109687 2.0354 9.75062e+20 6.48416e-06 -1.71975 1.10312 2.08006 
0.010125 0.0105937 2.02945 9.97826e+20 6.63554e-06 2.74146 -1.60095 -0.131843 
0.009375 0.0107812 1.94986 9.13288e+20 6.07336e-06 8.99891 6.18928 2.86329 
0.010125 0.0107812 2.0625 9.57378e+20 6.36656e-06 3.1795 -1.92039 3.73793 
0.007875 0.0113437 2.00871 9.55799e+20 6.35606e-06 0.068707 -0.17369 -3.14787 
0.007875 0.0115312 2.03911 9.85405e+20 6.55295e-06 0.218407 2.11377 0.586376 
0.008625 0.0115312 2.00273 9.52035e+20 6.33103e-06 -1.35458 7.49114 1.28083 
0.010125 0.0124688 1.99965 9.41268e+20 6.25943e-06 -0.434169 -2.35664 -1.43235 
0.009375 0.0126563 1.93525 9.56691e+20 6.36199e-06 1.45866 -0.0541995 1.646 
0.023625 0.0135938 2.00887 8.40891e+20 5.59192e-06 -0.96398 -1.09925 -0.325982 
0.020625 0.0143437 1.90034 8.60834e+20 5.72455e-06 -0.430907 3.13756 2.02064 
0.020625 0.0145312 2.02848 8.20909e+20 5.45905e-06 0.24301 0.67697 0.48895 
0.02625 0.0031875 1.95508 8.61032e+20 5.72586e-06 6.21278 -1.00179 0.899133 
0.02625 0.0035625 1.99293 8.39494e+20 5.58264e-06 -2.54848 -0.321996 0.309689 
0.01275 0.0061875 1.95233 8.3768e+20 5.57057e-06 -1.33805 0.738659 -0.781544 
0.01575 0.0031875 1.98428 8.07772e+20 5.37168e-06 -3.06139 -2.30188 -0.707844 
0.01725 0.0035625 2.05291 8.29964e+20 5.51926e-06 1.08186 0.256541 -1.12148 
0.003375 0.00121875 2.08371 5.00972e+21 3.33146e-05 9.8441 -4.70028 2.84285 
0.004125 0.00121875 1.93388 3.96525e+21 2.63689e-05 20.5842 -2.0723 -3.29662 
0.003375 0.00140625 1.99615 4.64885e+21 3.09149e-05 15.7488 -2.81048 4.98581 
0.004125 0.00140625 1.99484 3.95163e+21 2.62784e-05 16.3716 2.63232 -1.23993 
0.025875 0.0109687 1.97927 8.64658e+20 5.74998e-06 -1.64005 -0.461517 1.84401 
0.026625 0.0109687 1.92065 8.29577e+20 5.51668e-06 -1.78434 -4.21651 -2.07479 
0.025875 0.0111562 1.93974 8.38967e+20 5.57913e-06 -0.313554 -2.82382 -0.485485 
0.026625 0.0111562 1.99165 8.73459e+20 5.8085e-06 2.83131 1.23888 -3.15327 
0.024375 0.0113437 2.07135 8.44056e+20 5.61297e-06 2.141 -1.63347 2.74572 
0.025125 0.0113437 1.92366 8.43058e+20 5.60634e-06 0.159933 -0.127255 -2.33367 
0.025125 0.0115312 2.07553 8.84313e+20 5.88068e-06 2.64043 -2.32411 2.87328 
0.026625 0.0117188 2.06081 8.47951e+20 5.63888e-06 -0.717158 -0.577758 0.0553666 
0.025875 0.0119063 2.04255 8.15586e+20 5.42365e-06 1.60653 1.92886 -0.299543 
0.026625 0.0119063 2.04195 8.47906e+20 5.63857e-06 2.74139 1.24315 0.447897 
0.028875 0.0117188 1.98772 8.0256e+20 5.33702e-06 -3.26958 -1.21828 0.481834 
0.028875 0.0119063 2.0345 8.14636e+20 5.41733e-06 -2.16604 -0.973931 -0.398694 
0.029625 0.0119063 1.98665 8.62164e+20 5.73339e-06 0.863327 1.02743 2.59724 
0.024375 0.0120938 2.06207 8.78744e+20 5.84365e-06 1.43114 1.96027 0.678856 
0.025125 0.0120938 1.97258 8.78744e+20 5.84365e-06 -1.74543 2.0696 -3.04993 
0.024375 0.0122813 1.96164 8.71779e+20 5.79733e-06 1.68045 2.05063 -1.31966 
0.025125 0.0122813 1.98173 8.22015e+20 5.4664e-06 -0.00304952 1.53634 -0.32657 
0.025875 0.0124688 2.00192 7.76978e+20 5.1669e-06 -0.778188 1.77331 1.44684 
0.026625 0.0124688 2.04139 8.19639e+20 5.4506e-06 -2.99727 -1.01921 0.543489 
0.025875 0.0126563 2.05241 8.844e+20 5.88126e-06 0.852023 1.98046 0.774171 
0.025125 0.0135938 1.93935 8.08421e+20 5.376e-06 1.52737 1.8298 -3.17463 
0.024375 0.0137813 2.01034 8.623e+20 5.73429e-06 0.407277 -0.543593 5.19439 
0.025125 0.0137813 2.07137 8.07277e+20 5.36839e-06 0.127886 -1.49809 -0.715118 
0.028875 0.0135938 1.90635 8.40891e+20 5.59192e-06 -1.30325 -0.706397 2.86867 
0.028875 0.0137813 1.98538 8.67227e+20 5.76706e-06 1.37774 0.142484 2.01726 
0.024375 0.0147187 1.96186 8.24293e+20 5.48155e-06 0.436692 -1.07825 0.97351 
0.026625 0.0152812 1.89576 8.10244e+20 5.38813e-06 -1.58004 -3.14294 1.37115 
0.029625 0.0152812 1.96298 8.18391e+20 5.4423e-06 0.723384 -3.16861 0.753194 
0.025125 0.0158438 1.91835 8.74341e+20 5.81437e-06 -2.26644 -0.111451 -3.77044 
0.029625 0.0160313 1.93052 8.43642e+20 5.61022e-06 4.24021 -1.01245 1.51859 
0.026625 0.0171562 2.01711 8.39117e+20 5.58013e-06 3.59474 -1.32814 -1.21476 
0.027375 0.0169687 1.96201 8.51724e+20 5.66396e-06 4.56632 -1.36138 -1.45388 
0.024375 0.0216562 1.96764 7.93968e+20 5.27989e-06 4.41708 6.5396 -5.93819 
0.025125 0.0216562 2.16576 8.51191e+20 5.66042e-06 4.54715 -0.623596 3.91059 
0.025875 0.0216562 2.0028 7.83239e+20 5.20854e-06 4.834 -1.9475 1.62264 
0.026625 0.0216562 2.12491 9.58484e+20 6.37392e-06 0.548161 4.91242 -1.65114 
0.007875 0.00571875 1.94562 1.08452e+21 7.21205e-06 -2.13449 8.77092 -1.33631 
0.008625 0.00571875 1.9754 1.09639e+21 7.29101e-06 -0.152428 2.8924 -4.64778 
0.007875 0.00590625 1.87784 1.05201e+21 6.99584e-06 -1.50897 3.24906 -2.52696 
0.008625 0.00590625 2 1.16698e+21 7.76041e-06 -0.344148 8.13849 -0.59886 
0.008625 0.00759375 1.96255 1.05669e+21 7.02699e-06 -1.59714 4.48216 -2.89572 
0.007875 0.00778125 2.03264 1.01523e+21 6.75127e-06 2.54517 5.87675 -0.680839 
0.008625 0.00778125 2.05248 1.0225e+21 6.79963e-06 -1.65924 1.31242 -1.64252 
0.007875 0.00871875 1.94609 9.70968e+20 6.45694e-06 0.890837 0.352518 0.823706 
0.008625 0.00871875 2.00159 1.01121e+21 6.72454e-06 -1.20033 2.24058 -1.61497 
0.007875 0.00890625 2.02163 1.01915e+21 6.77733e-06 0.0369197 2.6399 1.16338 
0.008625 0.00890625 1.91962 9.96274e+20 6.62522e-06 -0.769503 5.13903 -0.474694 
0.007875 0.00984375 1.98139 9.78423e+20 6.50651e-06 3.08288 3.02422 0.925118 
0.008625 0.00984375 1.98194 9.9107e+20 6.59061e-06 1.52442 -1.41801 0.256584 
0.007875 0.0100312 2.03667 9.42083e+20 6.26485e-06 4.92886 2.17542 2.16464 
0.008625 0.0100312 1.93473 1.01993e+21 6.78254e-06 2.71149 2.96275 -2.25624 
0.010875 0.00984375 1.89741 8.93343e+20 5.94073e-06 2.55874 1.81744 1.05317 
0.011625 0.00984375 2.04509 9.55428e+20 6.3536e-06 3.47625 0.98522 0.686263 
0.010875 0.0100312 2.01347 9.20646e+20 6.1223e-06 5.22045 2.07602 -2.72053 
0.011625 0.0100312 1.95056 8.64234e+20 5.74716e-06 -1.08069 -1.50769 1.80807 
0.009375 0.0102187 2.03398 9.25904e+20 6.15726e-06 1.05385 4.92516 -2.13047 
0.010125 0.0102187 1.84574 9.27012e+20 6.16463e-06 7.1132 4.50998 2.39186 
0.010125 0.0104062 1.9707 9.21185e+20 6.12588e-06 2.18985 -0.554762 2.13327 
0.006375 0.0105937 2.01743 1.11775e+21 7.43301e-06 -4.66685 -1.14069 -4.32194 
0.007125 0.0105937 2.01326 1.03842e+21 6.90551e-06 -1.06701 2.25059 1.71182 
0.006375 0.0107812 2.04319 9.76273e+20 6.49222e-06 -6.31881 -1.45707 -1.98878 
0.008625 0.0105937 2.02004 9.90348e+20 6.58581e-06 4.39974 -0.684894 1.78278 
0.007875 0.0107812 1.96695 9.4898e+20 6.31071e-06 4.64029 0.805725 -0.97367 
0.008625 0.0107812 2.04668 9.01741e+20 5.99658e-06 2.04888 0.0974233 -1.22633 
0.009375 0.0109687 1.90626 9.37917e+20 6.23715e-06 4.56972 -0.13985 6.58676 
0.010125 0.0109687 2.04477 9.12122e+20 6.06561e-06 2.52953 -0.977801 -0.613205 
0.009375 0.0111562 2.00555 9.71863e+20 6.46289e-06 0.75576 2.43543 3.55969 
0.010125 0.0111562 1.87382 9.62732e+20 6.40217e-06 3.96003 3.98169 2.52269 
0.007875 0.0117188 2.06382 9.74468e+20 6.48021e-06 0.278749 1.82488 0.20573 
0.008625 0.0117188 2.08081 9.51289e+20 6.32607e-06 1.70075 1.71206 1.44034 
0.010125 0.0113437 1.97243 9.13895e+20 6.0774e-06 5.70686 1.14833 -1.21683 
0.009375 0.0115312 1.9604 9.76572e+20 6.4942e-06 0.0654461 1.11385 1.14745 
0.010125 0.0115312 1.9416 9.33387e+20 6.20702e-06 3.4503 -1.50385 -0.680407 
0.009375 0.0117188 2.08182 9.26179e+20 6.15909e-06 6.47862 -0.764248 1.33877 
0.010125 0.0117188 2.03453 9.02035e+20 5.99853e-06 6.69529 0.910805 2.64135 
0.010125 0.0119063 1.90442 9.42012e+20 6.26438e-06 4.71791 -0.216722 0.243309 
0.010875 0.0117188 2.02472 9.95715e+20 6.6215e-06 3.84546 -0.168403 1.55971 
0.011625 0.0117188 1.99985 8.74027e+20 5.81228e-06 2.03693 0.544658 -0.417268 
0.011625 0.0119063 1.99858 9.66726e+20 6.42873e-06 5.73135 1.00643 1.18036 
0.007875 0.0120938 2.04721 9.83557e+20 6.54065e-06 0.0944777 -1.63125 0.808916 
0.008625 0.0120938 2.0467 9.43316e+20 6.27305e-06 -2.80246 1.6966 -0.130036 
0.008625 0.0122813 1.93479 9.34443e+20 6.21405e-06 -1.10965 0.264821 2.88724 
0.007875 0.0126563 2.00274 9.53025e+20 6.33762e-06 1.51513 0.196349 2.86867 
0.008625 0.0126563 1.91499 9.67687e+20 6.43512e-06 6.21482 0.0916717 -2.08402 
0.012375 0.0117188 2.00772 8.73061e+20 5.80586e-06 1.63116 0.759224 -2.40561 
0.013125 0.0117188 1.9963 8.57609e+20 5.7031e-06 2.88934 -0.649383 -0.710626 
0.012375 0.0119063 1.95107 8.78324e+20 5.84085e-06 3.04631 1.18219 -1.47269 
0.013125 0.0119063 2.02087 8.67867e+20 5.77132e-06 1.72977 2.54465 -1.63504 
0.016875 0.0113437 1.95535 8.29091e+20 5.51345e-06 4.72209 -0.513653 -2.25676 
0.016875 0.0115312 1.95628 8.53887e+20 5.67835e-06 3.27272 0.891893 1.20034 
0.017625 0.0115312 2.06421 8.6272e+20 5.73709e-06 4.51656 -1.12002 -0.717391 
0.015375 0.0117188 1.90043 8.79822e+20 5.85081e-06 2.58405 -2.31541 0.435168 
0.016125 0.0117188 2.06014 8.87548e+20 5.90219e-06 2.53488 3.62537 -2.98516 
0.015375 0.0119063 2.05474 8.40301e+20 5.588e-06 1.23224 1.09387 -1.77324 
0.016125 0.0119063 2.05748 8.12735e+20 5.40468e-06 -0.0656609 -2.52093 -1.43144 
0.016875 0.0117188 1.95607 8.89479e+20 5.91504e-06 2.73565 -2.21697 -1.20148 
0.017625 0.0117188 2.036 8.32499e+20 5.53612e-06 1.61658 3.44754 -3.72803 
0.017625 0.0119063 1.94409 8.64065e+20 5.74603e-06 2.97065 -1.63933 3.38042 
0.015375 0.0124688 2.11789 8.68654e+20 5.77655e-06 0.578383 1.90797 -2.56087 
0.016125 0.0124688 1.96941 8.67746e+20 5.77051e-06 -0.178021 2.2238 0.838811 
0.015375 0.0126563 2.01403 8.18624e+20 5.44385e-06 0.0855875 -0.306135 -3.22385 
0.016125 0.0126563 2.03556 8.60166e+20 5.72011e-06 2.86769 1.53335 0.28782 
0.021375 0.00796875 1.89537 8.56416e+20 5.69517e-06 6.37127 3.57385 -0.8345 
0.022125 0.00796875 2.06729 8.29431e+20 5.51572e-06 0.271991 -3.44583 0.551642 
0.021375 0.00815625 1.95427 9.2831e+20 6.17326e-06 1.65139 2.29382 -0.756471 
0.022125 0.00815625 1.97098 9.11659e+20 6.06253e-06 -2.13547 0.554861 0.262989 
0.019875 0.00834375 2.0263 9.15588e+20 6.08866e-06 -1.2187 -1.26216 -1.31938 
0.020625 0.00834375 1.91983 8.19282e+20 5.44822e-06 -0.0398033 -2.63363 -3.34472 
0.019875 0.00853125 2.03827 8.13215e+20 5.40788e-06 0.599834 -0.449244 -0.8934 
0.020625 0.00853125 2.02067 8.91485e+20 5.92838e-06 1.79115 -1.75042 -0.529607 
0.022875 0.0105937 1.86139 8.30097e+20 5.52015e-06 -0.663751 -1.94125 -1.01655 
0.023625 0.0105937 1.98704 8.10867e+20 5.39227e-06 1.68053 -2.8058 -0.602666 
0.022875 0.0107812 2.0345 7.91516e+20 5.26358e-06 -1.63596 6.31392 0.14712 
0.023625 0.0107812 2.03871 8.6185e+20 5.7313e-06 2.04425 -1.79897 -1.21812 
0.022875 0.0117188 1.98043 7.90005e+20 5.25353e-06 -1.88142 4.96987 2.18017 
0.023625 0.0117188 2.04592 8.10286e+20 5.3884e-06 -0.340376 0.194236 -0.331916 
0.023625 0.0119063 2.12388 8.34598e+20 5.55007e-06 -0.620482 -0.851018 2.99281 
0.019125 0.0120938 1.98925 8.3476e+20 5.55115e-06 0.970409 -0.701347 0.931508 
0.018375 0.0122813 2.08419 8.4874e+20 5.64412e-06 1.53198 -2.11501 0.233454 
0.019125 0.0122813 1.9847 8.33995e+20 5.54607e-06 -1.96773 0.458104 0.163489 
0.019875 0.0122813 1.96832 8.76386e+20 5.82797e-06 -0.553766 -4.98937 1.29088 
0.020625 0.0122813 2.00402 8.3676e+20 5.56445e-06 1.67007 0.590398 1.14933 
0.022875 0.0132188 2.0114 8.66458e+20 5.76195e-06 2.2694 -0.916505 0.127248 
0.023625 0.0132188 2.0427 8.46766e+20 5.631e-06 2.4878 -1.3164 0.658725 
0.023625 0.0134063 1.9404 8.89797e+20 5.91715e-06 -0.767276 1.48007 1.60036 
0.019875 0.0135938 2.01276 8.55877e+20 5.69158e-06 -0.216642 -1.56054 0.553776 
0.022125 0.0143437 2.00285 8.26117e+20 5.49368e-06 0.928382 0.266974 1.46646 
0.022875 0.0143437 1.98864 8.4032e+20 5.58813e-06 0.707631 -0.151145 -0.637638 
0.022125 0.0150937 2.04868 8.15061e+20 5.42015e-06 -0.575878 -2.51864 2.04303 
0.021375 0.0152812 1.9689 8.23576e+20 5.47678e-06 3.34547 2.8829 -0.0761833 
0.022875 0.0150937 2.10451 8.31557e+20 5.52985e-06 0.37346 -0.397504 -0.459601 
0.021375 0.0158438 2.0616 8.90057e+20 5.91888e-06 0.227326 -1.71364 -0.684245 
0.023625 0.0162188 2.00177 8.28306e+20 5.50824e-06 -0.572436 -0.798047 -0.672165 
0.021375 0.0216562 1.84089 8.79803e+20 5.85069e-06 -3.52046 -5.47126 -6.84482 
0.022125 0.0216562 2.01828 7.83239e+20 5.20854e-06 5.26587 4.22628 -7.75704 
0.0135 0.000375 1.92422 8.46366e+20 5.62833e-06 -1.18866 -1.10758 2.782 
0.0165 0.000375 2.13052 7.73375e+20 5.14294e-06 -1.27586 -1.37448 -4.75811 
0.0195 0.000375 2.05854 9.4314e+20 6.27188e-06 5.64873 -0.154243 -2.38314 
0.0225 0.000375 1.86871 8.48826e+20 5.6447e-06 -0.5469 1.21567 1.31566 
0.02475 0.0024375 1.88565 8.40411e+20 5.58873e-06 3.05972 0.536148 3.50235 
0.02625 0.0024375 1.90044 8.38089e+20 5.57329e-06 2.68403 -4.19454 1.68301 
0.02475 0.0028125 1.90917 7.69603e+20 5.11786e-06 2.42615 -1.87642 -0.575524 
0.02625 0.0028125 1.85625 8.31976e+20 5.53264e-06 2.97584 2.66347 -0.748361 
0.02175 0.0024375 1.96318 8.33446e+20 5.54242e-06 1.8565 -0.903501 4.82314 
0.02325 0.0024375 2.03853 8.82199e+20 5.86662e-06 1.4917 3.05711 2.41722 
0.02175 0.0028125 1.93632 8.85294e+20 5.88721e-06 1.90527 0.556269 3.58386 
0.02325 0.0028125 1.98567 8.20909e+20 5.45905e-06 0.484966 -0.762913 0.00899966 
0.01875 0.0031875 2.02902 8.47717e+20 5.63732e-06 2.16052 -0.67109 1.74339 
0.02025 0.0031875 1.9952 8.13098e+20 5.4071e-06 2.06299 0.636994 1.77599 
0.01875 0.0035625 1.98511 8.29169e+20 5.51398e-06 -0.188029 -2.31184 -0.355368 
0.02025 0.0035625 1.99749 7.88664e+20 5.24462e-06 4.61856 -2.3597 -0.7899 
0.02325 0.0031875 1.91683 8.34402e+20 5.54877e-06 -0.844214 -0.321525 1.37938 
0.02175 0.0035625 2.04896 8.41083e+20 5.5932e-06 4.26467 -1.61635 -0.0274367 
0.004875 0.00121875 1.94652 3.64952e+21 2.42693e-05 23.1093 -0.667207 -0.630311 
0.005625 0.00121875 1.91165 2.52588e+21 1.67971e-05 26.679 3.06769 -0.809873 
0.004875 0.00140625 1.98141 3.43655e+21 2.28531e-05 21.5502 -3.82633 -4.2776 
0.005625 0.00140625 2.25543 2.85709e+21 1.89996e-05 18.7189 -1.83102 0.54981 
0.024375 0.0109687 1.94849 7.85209e+20 5.22164e-06 -1.10825 1.82768 -1.57497 
0.024375 0.0111562 1.98189 8.50126e+20 5.65334e-06 1.91595 1.14626 2.81848 
0.025125 0.0111562 2.11475 8.73459e+20 5.8085e-06 -1.15978 0.187966 1.81362 
0.027375 0.0113437 2.00003 8.13127e+20 5.4073e-06 0.414534 -1.37444 -0.502664 
0.028125 0.0113437 1.92147 7.86189e+20 5.22816e-06 -1.98789 -1.12542 1.42586 
0.027375 0.0115312 1.98951 8.4898e+20 5.64572e-06 1.86746 3.68624 2.97423 
0.028125 0.0115312 1.94437 8.11684e+20 5.3977e-06 3.42396 -1.065 1.24182 
0.027375 0.0117188 1.97894 8.73061e+20 5.80586e-06 2.40943 0.366152 0.999688 
0.028125 0.0117188 2.06918 7.81313e+20 5.19573e-06 0.858666 -0.825555 1.20305 
0.027375 0.0119063 1.94461 8.28894e+20 5.51215e-06 4.11466 -1.7739 2.73791 
0.025125 0.0124688 1.93085 8.76823e+20 5.83087e-06 0.95352 1.20959 2.23865 
0.024375 0.0126563 1.98047 8.81718e+20 5.86342e-06 2.11563 -4.56983 0.307454 
0.027375 0.0120938 2.00536 8.24466e+20 5.4827e-06 1.82451 -0.653046 1.22686 
0.028125 0.0120938 1.99589 8.21658e+20 5.46403e-06 -0.931356 -2.0767 5.64171 
0.027375 0.0122813 2.03353 8.91131e+20 5.92602e-06 1.60965 1.42479 -1.76018 
0.028125 0.0122813 1.94084 7.98055e+20 5.30707e-06 1.23099 1.50219 2.66824 
0.027375 0.0124688 1.93693 8.30531e+20 5.52303e-06 3.3378 4.02142 -0.183551 
0.028125 0.0124688 2.01139 8.43238e+20 5.60754e-06 0.0772391 -1.50699 1.50539 
0.027375 0.0126563 1.98859 8.37006e+20 5.56609e-06 -0.0168882 0.884782 -1.3283 
0.028125 0.0126563 2.09729 8.40583e+20 5.58987e-06 1.08566 -1.79348 -4.11621 
0.028875 0.0124688 2.02771 8.78638e+20 5.84294e-06 1.23882 0.569488 -5.76961 
0.029625 0.0124688 1.96342 8.22362e+20 5.46871e-06 3.8517 0.416174 -1.38842 
0.028875 0.0126563 1.95699 8.9066e+20 5.92289e-06 0.222288 -0.608379 0.980055 
0.024375 0.0128438 1.9989 8.53866e+20 5.67821e-06 -0.346055 -0.551192 0.539133 
0.025125 0.0128438 2.03207 7.94826e+20 5.2856e-06 -1.69862 2.98926 -1.0565 
0.024375 0.0130313 1.91081 8.5895e+20 5.71202e-06 0.358562 -0.447573 -0.616538 
0.025875 0.0128438 2.01366 7.93064e+20 5.27388e-06 -2.00048 2.46169 1.50836 
0.026625 0.0128438 1.99021 8.59153e+20 5.71337e-06 -0.0310083 0.404659 2.33298 
0.026625 0.0130313 2.07252 8.08577e+20 5.37703e-06 2.60665 -3.24436 -1.45472 
0.027375 0.0128438 1.95106 8.30074e+20 5.51999e-06 -1.47961 1.21406 -1.0912 
0.028125 0.0128438 1.99618 8.73252e+20 5.80712e-06 2.15117 -0.781915 -0.360973 
0.027375 0.0130313 2.08034 8.60687e+20 5.72357e-06 2.67032 2.92552 -2.88968 
0.028125 0.0130313 1.94844 8.22473e+20 5.46944e-06 -2.98588 1.12185 -2.83735 
0.026625 0.0135938 1.98328 8.25072e+20 5.48673e-06 2.73744 -0.749957 -1.22465 
0.028125 0.0139688 1.9877 8.34521e+20 5.54956e-06 2.98015 -0.659071 -0.987278 
0.027375 0.0141563 1.99684 8.01082e+20 5.3272e-06 -0.297553 3.3628 -1.37391 
0.028125 0.0141563 2.01536 8.54648e+20 5.68341e-06 -2.96176 -1.56814 -0.851608 
0.029625 0.0143437 2.04497 8.61623e+20 5.7298e-06 -0.635965 3.0907 -1.88409 
0.029625 0.0145312 2.01545 8.77766e+20 5.83714e-06 0.45634 -0.834287 -1.93906 
0.024375 0.0152812 2.08872 8.10244e+20 5.38813e-06 2.59619 -3.33583 -0.83328 
0.025125 0.0152812 1.95559 8.73938e+20 5.81169e-06 0.511279 1.07315 2.1581 
0.024375 0.0156563 2.05913 8.16861e+20 5.43213e-06 -0.567178 -0.869076 -0.808129 
0.025125 0.0156563 1.96352 8.18307e+20 5.44174e-06 2.86323 2.6074 -0.767477 
0.028875 0.0162188 2.04515 8.69477e+20 5.78202e-06 0.0369836 1.41975 -1.16457 
0.027375 0.0165937 2.04678 8.85294e+20 5.88721e-06 1.798 -2.39463 -0.122959 
0.028125 0.0180937 1.97419 8.16281e+20 5.42827e-06 2.20975 -3.52092 -2.67675 
0.007875 0.00496875 1.94637 1.02272e+21 6.80109e-06 2.26255 4.92589 3.08081 
0.008625 0.00496875 2.01084 1.03639e+21 6.89197e-06 -1.07945 6.88436 -1.49774 
0.007875 0.00515625 2.11738 1.13698e+21 7.56093e-06 -4.94779 4.49569 2.10919 
0.008625 0.00515625 1.98058 1.1721e+21 7.79447e-06 -4.59158 4.16117 -0.631988 
0.006375 0.00609375 1.9324 1.19445e+21 7.9431e-06 -7.82685 5.67265 -0.000226726 
0.007125 0.00609375 1.95316 1.14036e+21 7.58338e-06 -5.01182 1.61587 -1.14113 
0.006375 0.00628125 2.01836 1.08447e+21 7.21173e-06 -2.12963 -0.26523 -1.08167 
0.007125 0.00628125 2.00311 1.06127e+21 7.05746e-06 0.20918 4.7348 4.46286 
0.007875 0.00796875 1.92421 1.0936e+21 7.27243e-06 -2.70715 1.25224 0.926728 
0.008625 0.00796875 2.00464 1.04815e+21 6.9702e-06 0.875722 2.68015 -2.62358 
0.007875 0.00815625 2.00802 1.00185e+21 6.66233e-06 2.6006 5.56123 -2.70957 
0.008625 0.00815625 2.04615 1.00047e+21 6.6531e-06 0.717874 1.0533 -0.710274 
0.007875 0.00834375 1.97392 1.02681e+21 6.82832e-06 -2.71638 4.12193 -0.90676 
0.008625 0.00834375 1.96968 1.07293e+21 7.13501e-06 -0.781617 1.17775 1.36518 
0.007875 0.00853125 1.90671 9.97615e+20 6.63414e-06 -1.68715 4.37663 -2.03766 
0.008625 0.00853125 2.00387 1.01751e+21 6.76647e-06 -2.27088 2.77437 -0.0105895 
0.007875 0.00909375 2.04183 9.64531e+20 6.41413e-06 -0.754325 5.80106 -0.813735 
0.007875 0.00928125 1.85559 1.02431e+21 6.81165e-06 -1.22623 -0.541177 -0.569217 
0.008625 0.00928125 1.94675 1.0304e+21 6.85219e-06 0.0145226 4.97963 1.54924 
0.007875 0.00946875 2.02412 1.03869e+21 6.90727e-06 -0.35398 6.405 -1.22719 
0.008625 0.00946875 2.14011 9.89681e+20 6.58138e-06 -0.275063 1.79226 -1.03707 
0.007875 0.00965625 1.95135 1.01383e+21 6.74197e-06 -0.697758 2.33518 0.833693 
0.008625 0.00965625 2.00229 1.00797e+21 6.703e-06 1.87584 1.96994 -2.63328 
0.006375 0.00984375 1.87004 1.04554e+21 6.95283e-06 -2.1517 3.77644 3.10144 
0.007125 0.00984375 2.03148 9.76123e+20 6.49122e-06 1.81311 6.75293 1.75856 
0.006375 0.0100312 1.93715 1.0133e+21 6.73846e-06 -1.11619 2.5175 -3.34735 
0.007125 0.0100312 1.84665 1.00978e+21 6.71502e-06 -5.28837 5.79856 -0.614739 
0.007875 0.0102187 1.97459 9.3698e+20 6.23092e-06 5.85498 2.95535 0.690956 
0.008625 0.0102187 2.00448 1.0433e+21 6.93797e-06 -0.0861782 1.50554 1.18734 
0.007875 0.0104062 1.91502 1.01254e+21 6.7334e-06 -1.70678 6.06611 -2.46847 
0.008625 0.0104062 2.05741 9.60338e+20 6.38625e-06 3.85373 -0.613472 -0.637515 
0.010125 0.00984375 1.9982 9.93369e+20 6.60591e-06 2.1686 -0.373039 -2.11078 
0.009375 0.0100312 1.95957 9.93982e+20 6.60998e-06 -0.0540989 2.7654 0.814554 
0.010875 0.0109687 1.94021 9.03867e+20 6.01072e-06 8.07393 1.53365 0.23013 
0.011625 0.0109687 1.95752 8.81167e+20 5.85976e-06 3.49173 -1.95918 -2.80363 
0.010875 0.0111562 1.9964 9.13023e+20 6.07161e-06 0.948582 1.56107 -0.822358 
0.011625 0.0111562 1.99101 9.44472e+20 6.28074e-06 4.72365 -2.7535 1.2664 
0.006375 0.0113437 2.0321 9.50311e+20 6.31957e-06 -1.61688 2.60333 -2.73786 
0.006375 0.0115312 2.04017 9.31179e+20 6.19234e-06 -0.976811 3.2315 0.474524 
0.007125 0.0115312 1.99055 1.04724e+21 6.96414e-06 1.20428 2.75611 1.38735 
0.006375 0.0117188 2.01974 9.34388e+20 6.21368e-06 -1.66918 -1.43694 1.01074 
0.007125 0.0117188 2.01051 9.79297e+20 6.51232e-06 1.7996 3.11648 -2.19769 
0.006375 0.0119063 1.99261 9.62449e+20 6.40028e-06 1.61784 5.24237 -1.61824 
0.010875 0.0113437 2.09178 9.23872e+20 6.14375e-06 2.79426 -1.73504 -2.93671 
0.011625 0.0113437 1.95538 9.33849e+20 6.2101e-06 1.39704 2.57291 3.41421 
0.010875 0.0115312 1.92843 9.11794e+20 6.06343e-06 5.72986 1.54892 1.36684 
0.011625 0.0115312 2.04674 8.80387e+20 5.85457e-06 2.68821 -1.76919 2.098 
0.006375 0.0124688 2.04609 9.36049e+20 6.22473e-06 -0.798498 -0.741597 -1.75361 
0.007125 0.0124688 1.97558 9.89376e+20 6.57935e-06 0.706804 -2.70656 1.00808 
0.006375 0.0126563 2.02 9.11789e+20 6.06339e-06 2.52613 -4.82864 -6.93481 
0.007125 0.0126563 1.9871 1.00434e+21 6.67887e-06 1.40027 1.26579 -2.87122 
0.009375 0.0120938 2.10016 9.60161e+20 6.38507e-06 2.70351 -0.756262 0.755648 
0.009375 0.0122813 1.93608 9.99873e+20 6.64915e-06 3.34548 0.540681 -0.28223 
0.010875 0.0120938 1.99457 1.00695e+21 6.69623e-06 3.94908 0.84018 0.890181 
0.010875 0.0122813 2.04035 9.12326e+20 6.06697e-06 1.98105 0.561196 -1.49173 
0.013875 0.00871875 2.04638 8.89189e+20 5.9131e-06 6.11904 -4.11711 3.0581 
0.014625 0.00871875 1.99345 8.87891e+20 5.90447e-06 1.76133 -0.592828 0.35436 
0.013875 0.00890625 1.94359 8.45054e+20 5.61961e-06 1.26673 -4.00568 -0.820397 
0.014625 0.00890625 2.02623 8.8953e+20 5.91538e-06 0.951755 0.179494 -3.43368 
0.016875 0.00909375 2.00495 8.52521e+20 5.66927e-06 5.11964 -0.97755 -0.72043 
0.017625 0.00909375 1.98033 8.22652e+20 5.47063e-06 2.07241 -1.01529 4.39644 
0.016875 0.00928125 2.01799 8.15788e+20 5.42499e-06 8.8191 1.36234 1.98671 
0.017625 0.00928125 1.91392 8.60906e+20 5.72503e-06 1.82593 -1.71266 2.95101 
0.013875 0.00984375 1.9524 9.23236e+20 6.13952e-06 2.19342 -1.62953 -2.05955 
0.014625 0.00984375 1.97984 9.0254e+20 6.00189e-06 0.238609 -2.28781 0.980851 
0.013875 0.0100312 1.98313 8.21361e+20 5.46205e-06 5.25604 -1.37695 3.517 
0.014625 0.0100312 2.01035 8.0895e+20 5.37952e-06 3.22883 -0.104889 -3.33444 
0.012375 0.0102187 2.00563 8.7385e+20 5.8111e-06 4.02306 -0.363549 1.03842 
0.013125 0.0102187 2.05475 8.46161e+20 5.62697e-06 6.77837 -0.733287 2.19132 
0.012375 0.0104062 1.90799 8.83119e+20 5.87274e-06 3.76498 -1.50218 1.33186 
0.013125 0.0104062 2.04801 9.00521e+20 5.98846e-06 2.98063 -1.37632 1.91006 
0.015375 0.0102187 2.03063 8.22903e+20 5.4723e-06 1.34872 2.92181 -0.729158 
0.016125 0.0102187 1.88637 8.67205e+20 5.76691e-06 0.365354 -2.27042 4.03398 
0.015375 0.0104062 1.95075 8.51579e+20 5.663e-06 3.53096 -0.726205 0.658872 
0.016125 0.0104062 2.03603 8.36353e+20 5.56175e-06 6.32217 -0.8292 2.31766 
0.012375 0.0109687 2.03208 9.38949e+20 6.24401e-06 5.99219 2.82664 0.31153 
0.013125 0.0109687 2.06069 8.46086e+20 5.62647e-06 5.48039 -3.4909 -2.64827 
0.012375 0.0111562 1.98629 8.91719e+20 5.92993e-06 5.53293 -1.63303 -2.15157 
0.013125 0.0111562 2.01857 8.83604e+20 5.87596e-06 1.86524 3.79783 -2.30075 
0.015375 0.0105937 1.9353 8.39712e+20 5.58409e-06 1.56492 -0.759974 -1.9561 
0.016125 0.0105937 2.06779 8.84582e+20 5.88247e-06 0.569506 -3.04511 1.15295 
0.015375 0.0107812 2.02788 8.96492e+20 5.96167e-06 3.01797 1.18589 -1.50015 
0.016125 0.0107812 2.0734 8.36656e+20 5.56376e-06 3.77538 0.286676 -2.00117 
0.016875 0.0109687 1.92742 8.12036e+20 5.40004e-06 -0.839334 -2.97819 -2.51854 
0.017625 0.0109687 2.09705 8.35767e+20 5.55785e-06 2.97737 -0.149386 -4.19759 
0.012375 0.0113437 1.97564 9.21877e+20 6.13048e-06 3.11148 0.841288 1.47093 
0.013125 0.0113437 1.92132 8.97932e+20 5.97125e-06 5.32914 1.58266 -2.45186 
0.012375 0.0115312 2.00622 8.87257e+20 5.90026e-06 5.04688 0.467514 0.741447 
0.013125 0.0115312 1.89035 8.68609e+20 5.77625e-06 3.02325 -3.31577 1.03875 
0.014625 0.0117188 2.12154 8.99137e+20 5.97926e-06 1.68155 -0.79182 -1.54071 
0.013875 0.0119063 1.95376 8.75472e+20 5.82189e-06 6.07523 2.99908 0.830496 
0.014625 0.0119063 2.05095 8.53609e+20 5.6765e-06 4.65199 -0.146512 -0.574629 
0.013875 0.0120938 1.9766 8.93717e+20 5.94322e-06 -1.16239 -0.0751167 0.940899 
0.014625 0.0120938 2.06174 8.4131e+20 5.59471e-06 0.836087 0.280065 1.76093 
0.013875 0.0122813 1.96827 8.64406e+20 5.7483e-06 1.7071 1.99118 0.194887 
0.014625 0.0122813 1.97022 8.32152e+20 5.53381e-06 4.76074 4.85067 -0.976822 
0.012375 0.0124688 1.97805 8.84992e+20 5.8852e-06 2.24106 -0.183417 -0.887566 
0.012375 0.0126563 2.0254 8.82159e+20 5.86636e-06 3.63119 -0.961397 -1.00429 
0.013125 0.0126563 2.04947 9.17592e+20 6.10199e-06 3.09617 2.63323 -0.145628 
0.016875 0.0120938 1.99813 8.92781e+20 5.93699e-06 3.57049 0.25228 0.0356302 
0.016875 0.0122813 1.94546 8.51505e+20 5.66251e-06 -2.24639 -4.57515 1.83786 
0.017625 0.0122813 2.10458 8.15564e+20 5.4235e-06 4.37035 -0.922142 2.3827 
0.019875 0.00946875 2.05887 8.61788e+20 5.73089e-06 2.28744 -0.653249 -0.601244 
0.020625 0.00946875 1.98947 8.31906e+20 5.53217e-06 4.42096 2.23954 0.296885 
0.019875 0.00965625 1.95919 8.39194e+20 5.58064e-06 3.93414 0.894185 -0.808533 
0.020625 0.00965625 2.04476 8.13408e+20 5.40916e-06 3.08921 -2.63389 1.6747 
0.021375 0.00909375 1.96765 8.63722e+20 5.74375e-06 0.814214 2.82431 2.94046 
0.022125 0.00909375 1.89118 8.57499e+20 5.70237e-06 -2.69383 -0.151243 5.2633 
0.021375 0.00928125 1.98685 8.3164e+20 5.53041e-06 2.9816 -2.68685 -1.2321 
0.022125 0.00928125 1.974 8.5237e+20 5.66826e-06 -1.1131 0.0744369 -4.35814 