ITEM: TIMESTEP
500000
ITEM: NUMBER OF CELLS
31718
ITEM: BOX BOUNDS oo ao pp
0 0.12
0 0.03
-0.1 0.1
ITEM: CELLS xc yc f_out[1] f_out[2] f_out[3] f_out[4] f_out[5] f_out[6] 
0.003 0.00375 0 0 0 0 0 0 
0.003 0.00525 0 0 0 0 0 0 
0.003 0.00675 0 0 0 0 0 0 
0.003 0.00825 0 0 0 0 0 0 
0.003 0.00975 0 0 0 0 0 0 
0.003 0.01125 0 0 0 0 0 0 
0.003 0.01275 0 0 0 0 0 0 
0.003 0.01425 0 0 0 0 0 0 
0.003 0.01575 0 0 0 0 0 0 
0.003 0.01725 0 0 0 0 0 0 
0.003 0.01875 0 0 0 0 0 0 
0.003 0.02025 0 0 0 0 0 0 
0.003 0.02175 0 0 0 0 0 0 
0.003 0.02325 0 0 0 0 0 0 
0.027 0.02325 0 0 0 0 0 0 
0.003 0.02475 0 0 0 0 0 0 
0.027 0.02475 0 0 0 0 0 0 
0.003 0.02625 0 0 0 0 0 0 
0.027 0.02625 0 0 0 0 0 0 
0.003 0.02775 0 0 0 0 0 0 
0.027 0.02775 0 0 0 0 0 0 
0.003 0.02925 0 0 0 0 0 0 
0.027 0.02925 0 0 0 0 0 0 
0.009 0.01425 0 0 0 0 0 0 
0.009 0.01575 0 0 0 0 0 0 
0.009 0.01725 0 0 0 0 0 0 
0.009 0.01875 0 0 0 0 0 0 
0.009 0.02025 0 0 0 0 0 0 
0.009 0.02175 0 0 0 0 0 0 
0.009 0.02325 0 0 0 0 0 0 
0.009 0.02475 0 0 0 0 0 0 
0.009 0.02625 0 0 0 0 0 0 
0.009 0.02775 0 0 0 0 0 0 
0.009 0.02925 0 0 0 0 0 0 
0.015 0.01425 0 0 0 0 0 0 
0.015 0.01575 0 0 0 0 0 0 
0.015 0.01725 0 0 0 0 0 0 
0.015 0.01875 0 0 0 0 0 0 
0.015 0.02025 0 0 0 0 0 0 
0.015 0.02175 0 0 0 0 0 0 
0.015 0.02325 0 0 0 0 0 0 
0.015 0.02475 0 0 0 0 0 0 
0.015 0.02625 0 0 0 0 0 0 
0.015 0.02775 0 0 0 0 0 0 
0.015 0.02925 0 0 0 0 0 0 
0.021 0.02325 0 0 0 0 0 0 
0.021 0.02475 0 0 0 0 0 0 
0.021 0.02625 0 0 0 0 0 0 
0.021 0.02775 0 0 0 0 0 0 
0.021 0.02925 0 0 0 0 0 0 
0.0015 0.000375 0 0 0 0 0 0 
0.0015 0.001125 0 0 0 0 0 0 
0.0015 0.001875 0 0 0 0 0 0 
0.0015 0.002625 0 0 0 0 0 0 
0.0045 0.002625 0 0 0 0 0 0 
0.0255 0.022125 0 0 0 0 0 0 
0.0285 0.022125 0 0 0 0 0 0 
0.0105 0.000375 1.84884 4.12135e+21 2.74069e-05 8.77071 5.55748 3.07619 
0.0075 0.013125 0 0 0 0 0 0 
0.0105 0.013125 0 0 0 0 0 0 
0.0135 0.013125 0 0 0 0 0 0 
0.0165 0.013125 0 0 0 0 0 0 
0.0195 0.022125 0 0 0 0 0 0 
0.0225 0.022125 0 0 0 0 0 0 
0.0195 0.000375 1.90176 2.06925e+21 1.37605e-05 1.61457 1.09114 0.642786 
0.00375 0.0001875 1.94514 1.01002e+22 6.71662e-05 34.9487 -3.21291 -2.74735 
0.00525 0.0001875 1.83159 7.39422e+21 4.91716e-05 43.4479 2.68747 -5.11969 
0.00375 0.0020625 0 0 0 0 0 0 
0.00525 0.0020625 0 0 0 0 0 0 
0.00675 0.0001875 1.78359 4.75343e+21 3.16103e-05 50.9328 -2.11024 -2.51385 
0.00825 0.0001875 1.89941 4.66289e+21 3.10082e-05 27.9865 -0.0923366 -0.938956 
0.00825 0.0005625 1.91071 3.88825e+21 2.58569e-05 21.7679 10.2251 2.00183 
0.01125 0.0039375 0 0 0 0 0 0 
0.01125 0.0043125 0 0 0 0 0 0 
0.01125 0.0069375 0 0 0 0 0 0 
0.01125 0.0073125 0 0 0 0 0 0 
0.01125 0.0076875 0 0 0 0 0 0 
0.01125 0.0080625 0 0 0 0 0 0 
0.01125 0.0084375 0 0 0 0 0 0 
0.01125 0.0088125 0 0 0 0 0 0 
0.01125 0.0091875 0 0 0 0 0 0 
0.0255 0.000375 1.96438 2.05039e+21 1.36351e-05 2.26191 -1.3895 2.33886 
0.01125 0.0031875 0 0 0 0 0 0 
0.01125 0.0035625 0 0 0 0 0 0 
0.01125 0.0046875 0 0 0 0 0 0 
0.01125 0.0050625 0 0 0 0 0 0 
0.01125 0.0061875 0 0 0 0 0 0 
0.01125 0.0065625 0 0 0 0 0 0 
0.003375 0.00046875 1.80908 1.00708e+22 6.69705e-05 25.1032 -1.55862 3.99881 
0.004125 0.00046875 1.93827 9.92335e+21 6.59903e-05 32.5432 0.255803 -6.92263 
0.003375 0.00065625 1.89415 1.12326e+22 7.46967e-05 24.3804 1.42022 1.45603 
0.004125 0.00065625 1.8849 1.05028e+22 6.98437e-05 32.6898 -5.16353 4.44502 
0.003375 0.00084375 1.89504 1.16133e+22 7.72285e-05 21.9697 -3.65544 -1.12882 
0.003375 0.00103125 2.00098 1.08159e+22 7.19256e-05 24.7253 -2.85965 1.1212 
0.004125 0.00103125 1.98647 9.83335e+21 6.53918e-05 27.6333 2.45969 0.382742 
0.004875 0.00084375 1.93111 9.02732e+21 6.00317e-05 33.777 0.467518 -4.30764 
0.005625 0.00084375 1.78802 7.18966e+21 4.78113e-05 43.6412 -1.3372 4.16274 
0.004875 0.00103125 1.85937 8.49444e+21 5.6488e-05 29.0518 0.317003 1.42031 
0.005625 0.00103125 1.88874 6.92505e+21 4.60516e-05 38.5013 4.44991 6.0597 
0.003375 0.00121875 1.98838 1.09603e+22 7.28859e-05 26.463 -0.749696 0.0323672 
0.004875 0.00121875 1.90598 8.34839e+21 5.55168e-05 27.4803 0.47264 2.5566 
0.005625 0.00121875 1.99394 7.26189e+21 4.82916e-05 35.0937 3.07663 4.53478 
0.005625 0.00140625 1.9107 6.71214e+21 4.46357e-05 24.6151 3.64907 -0.518924 
0.025875 0.00459375 2.00183 2.15821e+21 1.43521e-05 3.3783 -3.70802 -1.97948 
0.026625 0.00459375 2.00293 2.0843e+21 1.38606e-05 -0.132406 3.24035 1.80332 
0.026625 0.00478125 2.00839 2.07121e+21 1.37735e-05 -0.00817976 3.46674 2.80275 
0.027375 0.00496875 1.89846 2.10922e+21 1.40263e-05 0.776259 -0.63127 3.42135 
0.028125 0.00515625 1.90786 2.27835e+21 1.5151e-05 0.491555 4.50574 2.51935 
0.025875 0.00534375 1.94819 2.16452e+21 1.43941e-05 -0.37275 -1.70951 1.35342 
0.025125 0.00590625 1.96412 2.11743e+21 1.40809e-05 2.88785 -2.51632 0.921566 
0.025875 0.00571875 1.93612 2.11956e+21 1.40951e-05 -0.16997 -3.33659 0.0430956 
0.026625 0.00590625 1.87892 1.99479e+21 1.32653e-05 1.46963 -1.88967 0.940944 
0.026625 0.00665625 2.02535 2.04037e+21 1.35685e-05 3.38348 0.565888 2.13333 
0.024375 0.0216562 1.98389 2.19235e+21 1.45792e-05 -5.52726 -1.6898 -0.245812 
0.025125 0.0216562 1.93216 1.95273e+21 1.29857e-05 2.08401 4.86064 -0.156484 
0.025875 0.0216562 2.09113 2.04572e+21 1.3604e-05 3.38097 -2.04732 5.05862 
0.026625 0.0216562 1.91741 2.06718e+21 1.37467e-05 1.85178 3.40844 -0.211742 
0.027375 0.0216562 2.08318 2.36402e+21 1.57208e-05 4.88946 -3.59155 -0.931788 
0.028125 0.0216562 1.96278 2.0636e+21 1.3723e-05 -1.09631 -0.568427 0.406327 
0.028875 0.0216562 1.99862 2.14228e+21 1.42462e-05 3.58245 -0.999878 2.75851 
0.029625 0.0216562 2.04782 2.14228e+21 1.42462e-05 -0.952203 2.39289 -0.839717 
0.007875 0.00271875 1.93703 3.07217e+21 2.04299e-05 3.97608 10.8639 0.0449258 
0.008625 0.00271875 1.87173 3.247e+21 2.15926e-05 2.1407 10.5464 -1.67626 
0.007875 0.00290625 1.89013 3.02973e+21 2.01477e-05 -1.55787 13.9955 4.58849 
0.008625 0.00290625 2.0931 3.14656e+21 2.09246e-05 0.89377 15.4443 -2.64048 
0.006375 0.00309375 1.95689 2.6065e+21 1.73332e-05 1.37582 -2.822 -4.3547 
0.007125 0.00309375 2.03471 2.98513e+21 1.98511e-05 -5.25776 7.80609 -0.506139 
0.006375 0.00328125 1.95779 2.78738e+21 1.85361e-05 -2.22295 3.46453 3.82622 
0.007125 0.00328125 1.9482 2.94907e+21 1.96113e-05 -1.50741 6.19794 -1.61122 
0.006375 0.00346875 2.0146 2.76519e+21 1.83885e-05 -3.33371 1.65473 -4.23388 
0.007125 0.00346875 1.92894 2.92017e+21 1.94191e-05 1.10992 7.73911 0.470296 
0.006375 0.00365625 2.00929 2.68142e+21 1.78314e-05 -1.95588 3.55735 -5.99 
0.007125 0.00365625 2.05641 2.66517e+21 1.77234e-05 1.12394 5.44825 1.32171 
0.007875 0.00346875 1.99982 2.88101e+21 1.91587e-05 -1.91718 12.1397 1.7375 
0.008625 0.00346875 2.0463 2.99847e+21 1.99398e-05 -0.395811 12.0318 -4.04719 
0.007875 0.00365625 2.04345 2.96852e+21 1.97407e-05 -6.56761 13.6182 -1.66264 
0.006375 0.00384375 1.98988 2.66104e+21 1.76959e-05 0.495892 1.69757 -0.939193 
0.007125 0.00384375 2.03958 2.75305e+21 1.83078e-05 -1.32949 6.21577 -1.87394 
0.006375 0.00403125 1.91803 2.811e+21 1.86931e-05 -0.453356 -2.00517 0.0530323 
0.007875 0.00384375 1.93532 2.72655e+21 1.81316e-05 -5.1699 7.11954 1.01111 
0.008625 0.00384375 1.92461 2.83549e+21 1.8856e-05 0.217579 11.1949 0.0617507 
0.006375 0.00421875 2.00748 2.69612e+21 1.79292e-05 2.32064 2.34475 4.40343 
0.007125 0.00421875 1.99229 2.68808e+21 1.78757e-05 -3.06679 11.9111 -1.27796 
0.006375 0.00440625 1.87941 2.87036e+21 1.90879e-05 -2.56981 4.90356 2.99481 
0.008625 0.00421875 2.07297 2.86245e+21 1.90353e-05 1.78161 9.28921 -2.78609 
0.006375 0.00459375 1.96865 2.72086e+21 1.80937e-05 -1.01959 1.61123 1.40291 
0.006375 0.00478125 2.10082 2.54759e+21 1.69415e-05 2.51803 -1.14431 -3.45519 
0.006375 0.00496875 1.92291 2.52406e+21 1.6785e-05 -0.790954 5.94873 -5.96115 
0.006375 0.00515625 1.88731 2.80267e+21 1.86378e-05 2.24451 9.87734 -0.691791 
0.006375 0.00571875 2.10451 2.89436e+21 1.92475e-05 -1.62866 -0.648571 0.313282 
0.006375 0.00590625 1.9281 2.56175e+21 1.70356e-05 2.70273 5.93896 3.8764 
0.006375 0.00609375 2.03912 2.69883e+21 1.79472e-05 -1.08464 2.25333 1.76001 
0.006375 0.00628125 1.99013 2.56759e+21 1.70745e-05 0.156981 5.05236 -1.03199 
0.006375 0.00646875 1.9678 2.82778e+21 1.88047e-05 -0.563571 3.60492 3.80444 
0.006375 0.00665625 2.11088 2.67161e+21 1.77662e-05 1.24415 5.81764 -1.95874 
0.006375 0.00684375 1.92821 2.79376e+21 1.85785e-05 -3.26717 5.28174 -2.95503 
0.006375 0.00703125 1.95504 2.64683e+21 1.76014e-05 0.119108 3.99683 2.56153 
0.006375 0.00721875 2.0154 2.81913e+21 1.87472e-05 2.36834 4.32429 -2.94486 
0.006375 0.00759375 1.93901 2.60446e+21 1.73197e-05 0.0133884 3.2649 -1.0647 
0.006375 0.00778125 2.01777 2.75715e+21 1.83351e-05 -1.00873 6.67774 1.64929 
0.006375 0.00796875 2.0611 2.65233e+21 1.7638e-05 0.391525 4.42194 -1.93095 
0.010125 0.00759375 0 0 0 0 0 0 
0.010125 0.00778125 0 0 0 0 0 0 
0.006375 0.00834375 1.94949 2.62977e+21 1.7488e-05 2.78483 1.13533 -4.81446 
0.006375 0.00871875 2.02681 2.67243e+21 1.77717e-05 1.33991 4.79772 1.43343 
0.010125 0.00871875 0 0 0 0 0 0 
0.010125 0.00890625 0 0 0 0 0 0 
0.010125 0.00946875 1.95434 2.42129e+21 1.61015e-05 0.92902 4.46014 -1.28118 
0.010875 0.00946875 2.09068 2.34605e+21 1.56012e-05 -4.83869 0.0373494 -2.99543 
0.011625 0.00946875 1.99995 2.44864e+21 1.62835e-05 2.86493 1.77265 -1.8326 
0.006375 0.0100312 1.97544 2.43066e+21 1.61639e-05 2.56963 1.23781 2.73446 
0.006375 0.0105937 2.01737 2.44582e+21 1.62647e-05 1.29127 1.3628 0.148048 
0.006375 0.0126563 1.94322 2.449e+21 1.62859e-05 0.764998 -3.11781 -3.45302 
0.015375 0.00384375 1.95422 2.21716e+21 1.47441e-05 3.29212 -1.39901 -1.92142 
0.016125 0.00384375 1.94379 2.08761e+21 1.38826e-05 3.27594 -4.61845 -0.0883394 
0.015375 0.00403125 1.99092 2.16177e+21 1.43757e-05 -3.73892 -4.47212 -0.271346 
0.016125 0.00403125 1.91099 2.20388e+21 1.46558e-05 4.356 -2.35634 -0.15838 
0.013875 0.00496875 2.07294 2.06138e+21 1.37082e-05 -1.34972 -1.05306 -0.09826 
0.014625 0.00496875 2.03546 2.19577e+21 1.46019e-05 -0.274637 1.19757 -3.43541 
0.013875 0.00515625 1.86416 2.07422e+21 1.37936e-05 -1.39484 0.0596783 -4.37085 
0.015375 0.00496875 1.99652 2.09555e+21 1.39354e-05 2.86503 0.144849 -0.979824 
0.016125 0.00496875 2.03609 2.20033e+21 1.46322e-05 2.05435 -2.19985 2.04161 
0.016875 0.00534375 2.04752 2.04168e+21 1.35772e-05 0.413383 -1.10995 -1.55799 
0.017625 0.00534375 1.97811 2.13699e+21 1.4211e-05 2.80457 -3.31404 4.22795 
0.014625 0.00665625 1.94558 2.10328e+21 1.39868e-05 3.77578 -1.92144 4.82386 
0.012375 0.00946875 1.98493 2.19006e+21 1.45639e-05 2.16205 -1.9776 -4.66132 
0.019875 0.00346875 1.95226 2.07185e+21 1.37778e-05 3.62008 -6.90806 1.29929 
0.020625 0.00346875 2.02984 2.05227e+21 1.36476e-05 0.993451 -2.34172 4.75717 
0.019875 0.00365625 2.03795 1.98108e+21 1.31742e-05 0.993445 -0.234618 -2.25856 
0.020625 0.00365625 1.98578 2.19776e+21 1.46151e-05 0.654779 -1.09272 0.954933 
0.020625 0.00534375 1.94633 2.16452e+21 1.43941e-05 0.861749 -2.11789 -1.22436 
0.019875 0.00553125 1.90659 2.15253e+21 1.43144e-05 3.10993 1.34247 -0.928558 
0.020625 0.00553125 1.96756 2.26098e+21 1.50355e-05 -0.526468 1.8001 -0.788959 
0.022875 0.00571875 1.97559 2.16706e+21 1.44109e-05 1.86118 -3.66573 -1.40245 
0.022125 0.00646875 1.98116 2.13101e+21 1.41712e-05 -0.59165 -0.0667437 -1.37135 
0.019875 0.0216562 1.89534 2.10294e+21 1.39846e-05 0.845377 0.227037 -4.76279 
0.020625 0.0216562 2.08848 2.35329e+21 1.56494e-05 -0.427697 0.476599 5.01511 
0.021375 0.0216562 2.10782 2.22097e+21 1.47694e-05 -0.957621 -1.39964 0.0260563 
0.022125 0.0216562 2.05081 2.20666e+21 1.46743e-05 1.98352 1.17556 -5.57452 
0.022875 0.0216562 2.09274 2.16374e+21 1.43889e-05 3.62276 -2.18954 0.658991 
0.023625 0.0216562 2.03927 2.17805e+21 1.4484e-05 -2.34853 -2.89641 -1.9909 
0.01125 0.0054375 0 0 0 0 0 0 
0.01125 0.0058125 0 0 0 0 0 0 
0.01875 0.0009375 1.98038 2.06133e+21 1.37078e-05 3.07881 -0.103892 1.45708 
0.02025 0.0009375 2.02481 2.02209e+21 1.34469e-05 0.0646179 -1.30908 0.963723 
0.01875 0.0013125 2.02885 2.12772e+21 1.41494e-05 6.21834 -1.82573 0.954464 
0.02025 0.0013125 1.90212 2.13419e+21 1.41924e-05 3.52303 1.56363 3.31923 
0.028875 0.00309375 2.04 2.1986e+21 1.46207e-05 -0.142107 0.279933 -1.98412 
0.029625 0.00309375 1.92308 2.19129e+21 1.45721e-05 3.24444 -0.790139 2.26735 
0.028875 0.00328125 2.01786 2.07642e+21 1.38082e-05 2.37216 -2.33441 -5.13434 
0.029625 0.00328125 1.85753 2.10746e+21 1.40146e-05 4.76232 3.6351 1.44731 
0.027375 0.00459375 2.00442 2.16314e+21 1.43849e-05 0.793879 1.41109 -4.18139 
0.028125 0.00459375 1.94288 2.173e+21 1.44504e-05 0.879214 -2.20461 2.00969 
0.027375 0.00478125 2.01342 2.26058e+21 1.50328e-05 -0.135887 -2.3258 0.100167 
0.028125 0.00478125 2.01695 2.14932e+21 1.4293e-05 1.90794 -4.6978 -0.768247 
0.028875 0.00459375 2.00352 2.2543e+21 1.49911e-05 -0.715933 -2.79912 -1.30561 
0.029625 0.00459375 2.0191 2.1114e+21 1.40408e-05 0.135992 -1.73368 -2.59142 
0.029625 0.00478125 2.02134 2.14696e+21 1.42773e-05 0.657801 3.24158 -0.71501 
0.028875 0.00496875 1.99193 2.10011e+21 1.39657e-05 -0.298592 2.06388 2.17893 
0.028875 0.00515625 2.05382 2.19714e+21 1.4611e-05 -0.300916 2.05969 -0.118255 
0.029625 0.00515625 2.00527 2.13568e+21 1.42023e-05 2.27422 2.61681 2.34948 
0.024375 0.00534375 2.00528 2.11793e+21 1.40842e-05 1.78848 -0.935545 2.02589 
0.025125 0.00534375 1.997 2.18147e+21 1.45068e-05 3.00101 -2.38096 -0.710461 
0.027375 0.00534375 2.05227 2.16664e+21 1.44082e-05 2.41818 -0.329359 1.41228 
0.028125 0.00553125 1.9183 2.20983e+21 1.46953e-05 0.249379 -1.33187 -0.324767 
0.028125 0.00571875 1.97591 2.13539e+21 1.42004e-05 2.95099 1.34219 -1.65595 
0.027375 0.00590625 1.97949 2.11359e+21 1.40554e-05 -0.244833 -1.10794 -2.33642 
0.028125 0.00590625 2.03147 2.16341e+21 1.43867e-05 3.40718 3.69012 1.83174 
0.006375 0.00121875 1.85881 5.32105e+21 3.5385e-05 42.9675 6.12121 0.199156 
0.007125 0.00121875 1.84851 4.16955e+21 2.77275e-05 35.8457 22.0858 -7.37446 
0.006375 0.00140625 1.81071 5.19104e+21 3.45204e-05 37.7367 10.4424 -1.89361 
0.007125 0.00140625 2.00822 3.80677e+21 2.5315e-05 31.9701 19.6918 -3.02131 
0.007875 0.00121875 1.88827 3.76095e+21 2.50103e-05 25.6663 22.9875 0.3585 
0.008625 0.00121875 1.99146 3.8631e+21 2.56896e-05 9.07826 15.0333 0.936812 
0.007875 0.00140625 1.93808 3.94358e+21 2.62248e-05 23.6174 15.7544 2.09897 
0.008625 0.00140625 2.22626 3.48484e+21 2.31742e-05 10.0889 16.3481 -5.43683 
0.007875 0.00159375 1.95079 3.53644e+21 2.35174e-05 20.347 18.7568 1.54447 
0.008625 0.00159375 1.88007 3.57195e+21 2.37535e-05 14.175 17.5573 -0.81587 
0.007875 0.00178125 1.97412 3.40563e+21 2.26474e-05 13.7408 20.8565 1.88009 
0.008625 0.00178125 1.97007 3.49458e+21 2.3239e-05 6.37846 12.5859 1.22273 
0.007875 0.00196875 1.97934 3.39746e+21 2.25931e-05 12.1629 20.4155 3.48891 
0.008625 0.00196875 1.88012 3.26524e+21 2.17139e-05 6.9368 14.9593 -0.648708 
0.007875 0.00215625 1.97698 3.07054e+21 2.04191e-05 4.91323 14.2643 -1.71616 
0.008625 0.00215625 1.9539 3.31723e+21 2.20596e-05 4.25563 14.6535 3.95143 
0.007875 0.00234375 1.96867 3.2933e+21 2.19004e-05 5.38948 22.6764 2.55607 
0.008625 0.00234375 2.11699 3.1098e+21 2.06802e-05 3.14771 16.281 -0.527479 
0.007875 0.00253125 1.98201 3.12089e+21 2.07539e-05 0.805342 12.8683 -3.54695 
0.008625 0.00253125 1.99992 3.54565e+21 2.35786e-05 3.73325 17.2954 -1.67169 
0.006375 0.00271875 2.03594 2.88796e+21 1.92049e-05 2.12202 2.73087 -6.31346 
0.007125 0.00271875 1.99573 2.8224e+21 1.87689e-05 0.203519 5.2036 -0.789679 
0.006375 0.00290625 1.9477 3.05212e+21 2.02966e-05 -5.08835 8.01449 -0.846089 
0.007125 0.00290625 1.94249 2.75324e+21 1.8309e-05 1.768 7.59777 -2.01822 
0.007875 0.00309375 1.90832 2.89001e+21 1.92186e-05 -1.26537 12.5102 -1.39957 
0.008625 0.00309375 1.93201 2.91196e+21 1.93645e-05 -0.00598852 15.1736 -1.47918 
0.007875 0.00328125 1.95376 2.91112e+21 1.9359e-05 -3.28175 6.36925 5.68831 
0.008625 0.00328125 1.98455 3.07324e+21 2.0437e-05 1.42552 12.5356 -0.0307381 
0.006375 0.00534375 1.94757 2.77978e+21 1.84856e-05 4.23635 4.09032 -2.31318 
0.006375 0.00553125 1.90125 2.70857e+21 1.8012e-05 -0.701393 3.24641 -2.95547 
0.010125 0.00721875 0 0 0 0 0 0 
0.010125 0.00740625 0 0 0 0 0 0 
0.010125 0.00796875 0 0 0 0 0 0 
0.010125 0.00815625 0 0 0 0 0 0 
0.016875 0.00459375 1.95923 2.06706e+21 1.37459e-05 4.583 3.27345 -2.61601 
0.016875 0.00478125 2.08004 2.17773e+21 1.44819e-05 2.16112 -3.38844 -0.125484 
0.017625 0.00478125 1.95884 2.23454e+21 1.48597e-05 0.472492 1.29377 -1.27896 
0.016875 0.00496875 2.06845 2.19122e+21 1.45716e-05 1.28456 -3.52709 -0.0341424 
0.017625 0.00496875 1.95394 2.06822e+21 1.37536e-05 0.618425 -1.18622 -3.03431 
0.013875 0.00571875 2.01399 2.19674e+21 1.46083e-05 2.21286 0.719468 -5.52597 
0.016875 0.00571875 1.91235 2.09185e+21 1.39108e-05 0.939329 -2.26579 1.85428 
0.012375 0.00909375 1.81736 2.01618e+21 1.34076e-05 -1.51222 6.27335 5.07288 
0.012375 0.00928125 1.80067 2.04862e+21 1.36233e-05 0.239229 -7.45194 3.23138 
0.022875 0.00384375 1.89031 2.14061e+21 1.4235e-05 2.81322 -7.15598 1.04466 
0.023625 0.00384375 1.96343 2.18477e+21 1.45287e-05 -0.2501 2.55316 2.70453 
0.022875 0.00403125 2.08651 2.1365e+21 1.42077e-05 1.06767 0.362662 0.874471 
0.023625 0.00403125 1.92698 2.04666e+21 1.36103e-05 0.129681 3.26624 -2.17412 
0.021375 0.00421875 2.00765 2.07374e+21 1.37903e-05 1.14278 1.09546 0.770994 
0.022125 0.00421875 1.98648 2.03081e+21 1.35049e-05 4.75056 -0.639798 -0.140002 
0.022125 0.00440625 2.02784 2.33738e+21 1.55436e-05 6.20151 -2.7363 3.45482 
0.021375 0.00515625 1.93776 2.11373e+21 1.40563e-05 5.10001 -5.33932 -0.913822 
0.022125 0.00515625 2.02034 2.14007e+21 1.42315e-05 1.7177 -2.79932 -0.177621 
0.022875 0.00496875 2.00876 2.25955e+21 1.5026e-05 3.57615 -0.527221 2.09698 
0.023625 0.00496875 2.06609 2.21855e+21 1.47534e-05 1.07503 0.892759 1.82995 
0.023625 0.00515625 2.07895 2.2564e+21 1.50051e-05 3.72609 -3.19921 0.544024 
0.020625 0.00590625 1.97989 2.18449e+21 1.45269e-05 3.61199 0.34921 -0.562374 
0.021375 0.00571875 2.0984 2.26403e+21 1.50558e-05 2.30664 -1.62945 -4.35994 
0.019125 0.00684375 2.01137 2.24907e+21 1.49563e-05 5.41213 -1.69917 0.0174354 
0.018375 0.0165937 0 0 0 0 0 0 
0.018375 0.0167812 0 0 0 0 0 0 
0.018375 0.0169687 0 0 0 0 0 0 
0.018375 0.0171562 0 0 0 0 0 0 
0.018375 0.0177187 0 0 0 0 0 0 
0.018375 0.0179062 0 0 0 0 0 0 
0.018375 0.0184687 0 0 0 0 0 0 
0.018375 0.0186562 0 0 0 0 0 0 
0.018375 0.0195938 0 0 0 0 0 0 
0.018375 0.0197812 0 0 0 0 0 0 
0.018375 0.0199687 0 0 0 0 0 0 
0.018375 0.0201562 0 0 0 0 0 0 
0.018375 0.0207187 0 0 0 0 0 0 
0.018375 0.0209062 0 0 0 0 0 0 
0.018375 0.0210937 0 0 0 0 0 0 
0.018375 0.0212812 0 0 0 0 0 0 
0.02475 0.0009375 1.98872 2.14281e+21 1.42497e-05 2.03976 7.20013 -1.04874 
0.02625 0.0009375 1.97415 1.99493e+21 1.32663e-05 5.281 -0.788658 -2.28616 
0.0286875 0.0105469 2.01602 2.12041e+21 1.41008e-05 1.02836 -3.02105 -2.14567 
0.0290625 0.0105469 2.07247 2.21485e+21 1.47287e-05 1.1787 4.21976 -0.841415 
0.0286875 0.0106406 1.93234 2.2166e+21 1.47404e-05 -0.993336 6.21254 0.258436 
0.0290625 0.0106406 2.02395 2.02515e+21 1.34673e-05 2.4733 -0.10345 -1.53752 
0.0294375 0.0124219 2.09035 2.13564e+21 1.4202e-05 3.53346 -2.23154 -2.43357 
0.0298125 0.0124219 1.99951 2.20488e+21 1.46625e-05 4.42716 2.23872 2.72622 
0.0294375 0.0125156 2.01508 2.12326e+21 1.41197e-05 2.81926 0.420171 -4.96835 
0.0298125 0.0125156 2.05369 2.21369e+21 1.4721e-05 3.18923 2.05999 -0.0949379 
0.0241875 0.0127969 2.06143 2.26055e+21 1.50327e-05 3.0455 1.72527 0.358396 
0.0245625 0.0127969 1.96133 2.11197e+21 1.40446e-05 -1.50162 0.279751 -2.04189 
0.0241875 0.0128906 2.03215 2.25114e+21 1.49701e-05 -1.06636 -0.0671465 0.611739 
0.0245625 0.0128906 2.00765 1.94209e+21 1.29149e-05 -1.22314 -1.80343 3.27645 
0.0279375 0.0127969 1.95242 1.92801e+21 1.28213e-05 -1.39503 1.9221 -0.42607 
0.0283125 0.0127969 1.92296 2.06244e+21 1.37153e-05 -0.933391 -0.319316 1.16487 
0.0279375 0.0128906 2.00707 2.08256e+21 1.3849e-05 5.91652 4.70267 2.78186 
0.0283125 0.0128906 1.90437 2.14929e+21 1.42928e-05 -1.78821 -1.89646 -0.845122 
0.0256875 0.0137344 1.96808 2.24798e+21 1.49491e-05 0.0553372 1.03717 1.97261 
0.0260625 0.0137344 1.96751 2.2348e+21 1.48614e-05 0.607341 -1.50796 -1.34521 
0.0256875 0.0138281 1.98607 2.12798e+21 1.41511e-05 -0.910058 0.711189 2.07851 
0.0260625 0.0138281 2.04394 2.12798e+21 1.41511e-05 2.15546 -0.223005 -1.80544 
0.0279375 0.0139219 1.99464 2.05187e+21 1.36449e-05 -0.320242 5.38385 0.873057 
0.0283125 0.0139219 2.04114 2.2047e+21 1.46613e-05 -0.310234 -0.117353 -0.255158 
0.0279375 0.0140156 2.02691 2.14473e+21 1.42625e-05 1.98342 -1.54251 -1.53819 
0.0283125 0.0140156 1.93948 2.31915e+21 1.54224e-05 3.24884 -1.07385 1.88126 
0.0279375 0.0142969 2.04383 2.27986e+21 1.51611e-05 -2.95727 -0.606924 -1.36227 
0.0283125 0.0142969 1.97612 2.12787e+21 1.41504e-05 -0.311145 0.119906 0.677195 
0.0279375 0.0143906 1.87209 2.19895e+21 1.4623e-05 1.64861 -0.780249 5.25325 
0.0283125 0.0143906 1.97689 2.25557e+21 1.49996e-05 0.685497 2.61947 -1.03676 
0.0286875 0.0146719 1.96678 2.03337e+21 1.35219e-05 -0.854254 -0.476566 -1.21445 
0.0290625 0.0146719 1.96428 2.11977e+21 1.40965e-05 -0.10313 -0.685066 -4.46766 
0.0286875 0.0147656 2.01568 2.1523e+21 1.43128e-05 1.09316 1.19827 -4.43947 
0.0290625 0.0147656 2.00176 2.11857e+21 1.40885e-05 -2.17939 3.79793 0.309301 
0.0256875 0.0154219 1.99929 2.14291e+21 1.42503e-05 1.39693 2.6266 0.229567 
0.0256875 0.0155156 1.9833 2.12704e+21 1.41448e-05 1.21154 0.612327 -1.98596 
0.0260625 0.0155156 1.97463 2.22041e+21 1.47657e-05 -1.96146 0.897687 0.0347463 
0.0286875 0.0150469 2.05538 2.11207e+21 1.40453e-05 3.96034 2.49888 0.762384 
0.0290625 0.0150469 1.93555 2.14817e+21 1.42854e-05 -2.91292 2.40012 -2.91022 
0.0286875 0.0151406 2.08248 1.99434e+21 1.32624e-05 -0.678833 -0.937183 -1.23588 
0.0290625 0.0151406 2.05665 2.09899e+21 1.39583e-05 1.90661 1.09734 -1.97823 
0.0286875 0.0154219 2.01713 2.22216e+21 1.47774e-05 0.19349 -0.734202 -5.46197 
0.0290625 0.0154219 1.99064 2.12823e+21 1.41527e-05 -0.370013 2.54734 -4.99252 
0.0286875 0.0155156 2.06606 2.13871e+21 1.42224e-05 2.00325 1.68357 1.62071 
0.0290625 0.0155156 2.09107 2.07452e+21 1.37956e-05 1.25968 0.00200868 0.507854 
0.0294375 0.0154219 2.01393 2.19868e+21 1.46212e-05 0.0349829 4.58763 -0.16709 
0.0298125 0.0154219 2.0135 2.14584e+21 1.42699e-05 -1.66913 -2.53717 -2.31263 
0.0294375 0.0155156 2.04031 2.2029e+21 1.46493e-05 -0.593096 4.18772 3.10578 
0.0298125 0.0155156 2.0206 2.18831e+21 1.45523e-05 -0.33507 -0.214514 -1.86058 
0.0256875 0.0161719 2.01837 2.20309e+21 1.46505e-05 1.61904 0.745895 -7.02557 
0.0260625 0.0161719 1.92486 1.98474e+21 1.31985e-05 0.668549 -2.33222 -0.651658 
0.0256875 0.0162656 1.9767 2.08463e+21 1.38628e-05 2.64974 -3.81223 1.52667 
0.0260625 0.0162656 1.96651 2.11246e+21 1.40479e-05 1.5318 -2.46604 -1.44364 
0.0279375 0.0159844 2.00226 2.25159e+21 1.49731e-05 -1.19001 0.517279 0.367441 
0.0283125 0.0159844 1.98402 2.19211e+21 1.45775e-05 -1.67125 3.00512 1.24358 
0.0283125 0.0160781 1.96423 2.19904e+21 1.46236e-05 7.03344 0.0303759 -2.10537 
0.0294375 0.0159844 2.00671 2.11848e+21 1.40879e-05 3.28609 4.76711 -2.12427 
0.0298125 0.0159844 1.92875 2.21194e+21 1.47094e-05 5.66321 -2.41897 0.0228013 
0.0294375 0.0160781 1.998 2.16244e+21 1.43802e-05 -2.05762 0.313141 -0.35295 
0.0298125 0.0160781 1.91579 2.01602e+21 1.34065e-05 3.16187 0.974337 -0.764281 
0.0279375 0.0163594 2.08455 2.11142e+21 1.4041e-05 3.02578 0.439624 -1.83625 
0.0283125 0.0163594 2.00903 1.98136e+21 1.31761e-05 4.45808 -4.68723 0.953702 
0.0279375 0.0164531 1.94282 2.12966e+21 1.41622e-05 0.398638 -1.26373 0.860236 
0.0283125 0.0164531 2.02684 2.1159e+21 1.40707e-05 -0.31564 1.28023 -3.58351 
0.0249375 0.0167344 1.93685 2.04788e+21 1.36184e-05 1.31753 1.68643 -0.933802 
0.0253125 0.0167344 2.0639 2.19937e+21 1.46258e-05 -3.52648 3.7307 -4.44133 
0.0249375 0.0168281 1.96942 2.23285e+21 1.48485e-05 -0.07989 3.01479 -2.19664 
0.0253125 0.0168281 1.9707 2.23554e+21 1.48664e-05 0.585028 0.513252 -0.883261 
0.0256875 0.0165469 2.02173 2.26533e+21 1.50645e-05 -2.42491 1.26566 0.31711 
0.0260625 0.0165469 2.06126 2.31731e+21 1.54101e-05 -1.39558 -1.00866 2.49633 
0.0256875 0.0166406 1.99533 2.00773e+21 1.33514e-05 -2.5818 -1.1964 7.31522 
0.0260625 0.0166406 1.9748 2.17096e+21 1.44369e-05 -2.9308 -0.371125 -1.60835 
0.0264375 0.0165469 1.86282 2.26807e+21 1.50827e-05 2.7975 4.86622 0.0411176 
0.0268125 0.0165469 2.04983 2.08203e+21 1.38455e-05 3.34389 -0.829234 1.01079 
0.0268125 0.0166406 2.04385 2.24169e+21 1.49072e-05 3.7532 3.41179 0.549943 
0.0264375 0.0167344 1.92407 2.13445e+21 1.41941e-05 -1.61841 1.09316 -0.695403 
0.0268125 0.0167344 1.98305 2.28594e+21 1.52015e-05 -0.606396 2.56477 5.96025 
0.0264375 0.0168281 2.0522 2.22209e+21 1.47769e-05 -0.11525 -0.90547 -0.467928 
0.0268125 0.0168281 1.91647 2.1925e+21 1.45801e-05 -1.18908 4.97155 -1.40045 
0.0271875 0.0167344 2.08325 2.18043e+21 1.44999e-05 1.44424 0.299537 0.61989 
0.0275625 0.0167344 1.92613 2.29135e+21 1.52375e-05 1.62487 4.55595 -1.55691 
0.0275625 0.0168281 1.98126 2.23016e+21 1.48306e-05 -1.69443 -3.38613 -3.21856 
0.0279375 0.0167344 1.99691 2.14256e+21 1.4248e-05 0.923263 0.95323 1.18262 
0.0283125 0.0167344 1.98726 2.2643e+21 1.50576e-05 -3.1028 4.28529 -0.591582 
0.0279375 0.0168281 1.92356 2.28397e+21 1.51884e-05 1.06245 -2.08077 -2.40451 
0.0283125 0.0168281 1.90695 2.2194e+21 1.4759e-05 1.78245 -6.39542 -3.94473 
0.0286875 0.0167344 1.9523 2.14527e+21 1.4266e-05 0.434995 0.990406 1.64427 
0.0286875 0.0168281 2.05276 2.03916e+21 1.35604e-05 2.44456 3.49938 -1.81882 
0.0290625 0.0168281 2.11069 2.1387e+21 1.42223e-05 3.56449 -2.6789 -2.21606 
0.0298125 0.0167344 1.90803 2.07764e+21 1.38163e-05 1.07024 2.10173 -1.26459 
0.0294375 0.0168281 1.93858 2.23016e+21 1.48306e-05 3.58141 2.51169 -0.928218 
0.0298125 0.0168281 2.09824 2.03378e+21 1.35246e-05 0.395672 0.622974 0.82703 
0.0294375 0.0171094 1.98803 2.20673e+21 1.46748e-05 6.0658 0.309673 -4.18994 
0.0298125 0.0171094 1.99161 2.23319e+21 1.48507e-05 0.138331 -3.04968 1.95182 
0.0294375 0.0172031 1.95863 2.21576e+21 1.47348e-05 -0.457272 0.309136 0.230318 
0.0298125 0.0172031 1.93838 2.08944e+21 1.38948e-05 -0.445072 1.93231 -1.10239 
0.0264375 0.0174844 1.97188 2.12315e+21 1.4119e-05 -3.0975 0.432807 -0.415748 
0.0268125 0.0174844 1.99114 2.08173e+21 1.38435e-05 -0.0123866 3.38959 2.55344 
0.0264375 0.0175781 1.93982 2.22257e+21 1.47801e-05 -2.66244 -1.33675 -0.555348 
0.0268125 0.0175781 1.94414 2.19939e+21 1.4626e-05 -5.13006 -0.348953 0.742657 
0.0256875 0.0178594 1.99945 2.24841e+21 1.49519e-05 -1.30744 0.489768 -0.627321 
0.0260625 0.0178594 2.05454 2.14701e+21 1.42776e-05 -0.839363 -3.37751 -0.551332 
0.0256875 0.0179531 1.97195 2.17615e+21 1.44714e-05 1.61155 -0.434809 2.92234 
0.0260625 0.0179531 2.08596 2.14841e+21 1.42869e-05 2.48913 2.88049 -0.380327 
0.0283125 0.0172969 2.06978 2.18804e+21 1.45505e-05 0.015562 -1.15458 0.229896 
0.0279375 0.0173906 1.99585 2.1346e+21 1.41951e-05 2.63273 -0.934206 -0.725081 
0.0283125 0.0173906 1.93435 2.12679e+21 1.41431e-05 2.76626 -2.1121 2.13455 
0.0294375 0.0174844 1.9506 2.10503e+21 1.39984e-05 -4.50683 1.81217 3.62232 
0.0298125 0.0174844 2.04629 2.11021e+21 1.40329e-05 -0.537044 1.37355 3.22611 
0.0294375 0.0175781 1.99524 2.18909e+21 1.45575e-05 2.8756 -3.02394 1.29074 
0.0298125 0.0175781 2.00203 2.03714e+21 1.3547e-05 -3.52386 2.49505 -1.83432 
0.0279375 0.0176719 2.06436 2.13905e+21 1.42247e-05 -1.12687 1.213 -5.25637 
0.0283125 0.0176719 1.96255 2.06989e+21 1.37647e-05 -0.558499 3.22972 -0.570896 
0.0279375 0.0177656 1.96994 2.13031e+21 1.41666e-05 -1.92865 0.389711 2.18011 
0.0283125 0.0177656 1.92626 2.20166e+21 1.46411e-05 -0.737932 1.72421 2.47205 
0.0279375 0.0178594 2.00288 2.15208e+21 1.43114e-05 0.40721 3.05196 -1.07868 
0.0283125 0.0178594 2.05215 2.1166e+21 1.40754e-05 0.0669932 -0.381313 4.48672 
0.0279375 0.0179531 2.05509 2.15345e+21 1.43205e-05 1.18021 2.66307 -0.233242 
0.0283125 0.0179531 2.02241 2.30475e+21 1.53266e-05 -0.501389 1.54934 -0.382975 
0.0286875 0.0178594 1.92309 2.26362e+21 1.5053e-05 5.79334 2.49096 1.3811 
0.0290625 0.0178594 1.98297 2.14955e+21 1.42945e-05 3.51903 -0.717596 2.73848 
0.0286875 0.0179531 2.00732 2.08789e+21 1.38845e-05 1.63334 6.40075 4.60753 
0.0290625 0.0179531 2.01774 2.16354e+21 1.43875e-05 0.650762 -0.559021 -2.70881 
0.0294375 0.0178594 2.00187 2.07097e+21 1.37719e-05 3.28973 2.35379 -0.0776512 
0.0298125 0.0178594 1.97861 1.98732e+21 1.32157e-05 2.20233 0.970688 -0.208879 
0.0294375 0.0179531 2.13009 2.03746e+21 1.35491e-05 -0.754245 -0.936836 1.73617 
0.0298125 0.0179531 2.02948 2.15345e+21 1.43205e-05 1.74328 0.623853 -2.0017 
0.0264375 0.0180469 2.05705 2.19244e+21 1.45797e-05 0.258247 -2.27923 0.812896 
0.0268125 0.0180469 1.99904 2.22254e+21 1.47799e-05 0.451169 0.627556 1.68906 
0.0264375 0.0181406 1.98247 2.13868e+21 1.42222e-05 0.870297 -0.968825 -0.915738 
0.0241875 0.0186094 1.97243 2.2551e+21 1.49964e-05 -2.73018 1.19096 -2.26929 
0.0245625 0.0186094 1.94812 2.06292e+21 1.37184e-05 -3.16961 -0.587039 0.962947 
0.0241875 0.0187031 1.99536 2.1736e+21 1.44544e-05 -2.94676 1.54073 0.59971 
0.0268125 0.0185156 2.01135 2.15894e+21 1.43569e-05 -2.01146 -1.104 -1.37382 
0.0256875 0.0186094 1.91867 2.23564e+21 1.4867e-05 -1.98591 -4.03734 1.28048 
0.0256875 0.0187031 2.01474 2.22927e+21 1.48247e-05 -1.53341 -7.26521 0.082338 
0.0260625 0.0187031 1.97373 2.20265e+21 1.46476e-05 1.86801 -0.150738 -0.377328 
0.0271875 0.0182344 2.0122 2.19472e+21 1.45949e-05 -3.4496 -2.22659 3.0154 
0.0275625 0.0183281 2.00984 2.08469e+21 1.38632e-05 -1.21658 0.464696 1.66747 
0.0286875 0.0180469 1.98826 2.28776e+21 1.52136e-05 4.47369 1.06 -1.60927 
0.0290625 0.0180469 1.94471 2.17739e+21 1.44796e-05 -0.686538 -1.15944 -0.0884838 
0.0286875 0.0181406 2.03645 2.26595e+21 1.50686e-05 2.57513 -4.20666 0.828678 
0.0290625 0.0181406 2.0396 2.17611e+21 1.44712e-05 1.29675 0.335495 2.71055 
0.0241875 0.0189844 2.1415 2.20817e+21 1.46843e-05 -4.43019 2.4099 2.66303 