ITEM: TIMESTEP
500000
ITEM: NUMBER OF CELLS
11227
ITEM: BOX BOUNDS oo ao pp
0 0.12
0 0.03
-0.1 0.1
ITEM: CELLS xc yc f_out[1] f_out[2] f_out[3] f_out[4] f_out[5] f_out[6] 
0.003 0.00225 2.01278 2.47994e+21 1.64916e-05 8.36185 2.32521 -2.96207 
0.003 0.00375 0 0 0 0 0 0 
0.003 0.00525 0 0 0 0 0 0 
0.003 0.00675 0 0 0 0 0 0 
0.003 0.00825 0 0 0 0 0 0 
0.003 0.00975 0 0 0 0 0 0 
0.003 0.01125 0 0 0 0 0 0 
0.003 0.01275 0 0 0 0 0 0 
0.003 0.01425 0 0 0 0 0 0 
0.003 0.01575 0 0 0 0 0 0 
0.003 0.01725 0 0 0 0 0 0 
0.003 0.01875 0 0 0 0 0 0 
0.003 0.02025 0 0 0 0 0 0 
0.003 0.02175 0 0 0 0 0 0 
0.003 0.02325 0 0 0 0 0 0 
0.027 0.02325 0 0 0 0 0 0 
0.003 0.02475 0 0 0 0 0 0 
0.027 0.02475 0 0 0 0 0 0 
0.003 0.02625 0 0 0 0 0 0 
0.027 0.02625 0 0 0 0 0 0 
0.003 0.02775 0 0 0 0 0 0 
0.027 0.02775 0 0 0 0 0 0 
0.003 0.02925 0 0 0 0 0 0 
0.027 0.02925 0 0 0 0 0 0 
0.009 0.01425 0 0 0 0 0 0 
0.009 0.01575 0 0 0 0 0 0 
0.009 0.01725 0 0 0 0 0 0 
0.009 0.01875 0 0 0 0 0 0 
0.009 0.02025 0 0 0 0 0 0 
0.009 0.02175 0 0 0 0 0 0 
0.009 0.02325 0 0 0 0 0 0 
0.009 0.02475 0 0 0 0 0 0 
0.009 0.02625 0 0 0 0 0 0 
0.009 0.02775 0 0 0 0 0 0 
0.009 0.02925 0 0 0 0 0 0 
0.015 0.01425 0 0 0 0 0 0 
0.015 0.01575 0 0 0 0 0 0 
0.015 0.01725 0 0 0 0 0 0 
0.015 0.01875 0 0 0 0 0 0 
0.015 0.02025 0 0 0 0 0 0 
0.015 0.02175 0 0 0 0 0 0 
0.015 0.02325 0 0 0 0 0 0 
0.015 0.02475 0 0 0 0 0 0 
0.015 0.02625 0 0 0 0 0 0 
0.015 0.02775 0 0 0 0 0 0 
0.015 0.02925 0 0 0 0 0 0 
0.021 0.02325 0 0 0 0 0 0 
0.021 0.02475 0 0 0 0 0 0 
0.021 0.02625 0 0 0 0 0 0 
0.021 0.02775 0 0 0 0 0 0 
0.021 0.02925 0 0 0 0 0 0 
0.0015 0.000375 0 0 0 0 0 0 
0.0015 0.001125 0 0 0 0 0 0 
0.0105 0.003375 1.95798 9.08737e+20 6.0431e-06 -1.75282 10.2507 2.61907 
0.0105 0.004125 1.93919 9.74524e+20 6.48059e-06 -0.636148 3.06599 -2.61736 
0.0075 0.013125 0 0 0 0 0 0 
0.0105 0.013125 0 0 0 0 0 0 
0.0135 0.013125 0 0 0 0 0 0 
0.0165 0.013125 0 0 0 0 0 0 
0.0195 0.022125 0 0 0 0 0 0 
0.0225 0.022125 0 0 0 0 0 0 
0.0255 0.022125 0 0 0 0 0 0 
0.0285 0.022125 0 0 0 0 0 0 
0.0105 0.001875 1.87914 1.10187e+21 7.32745e-06 0.0314505 7.35828 -3.58311 
0.0105 0.002625 1.97995 9.65511e+20 6.42065e-06 -2.04041 4.68356 -5.496 
0.00375 0.0009375 1.9354 2.44874e+21 1.62841e-05 23.3185 -0.570236 -2.92289 
0.00525 0.0009375 1.90782 1.9557e+21 1.30054e-05 21.4342 1.56461 1.10282 
0.00525 0.0013125 1.97853 2.0803e+21 1.3834e-05 18.6449 -3.49984 -0.663991 
0.00675 0.0031875 1.88354 9.15835e+20 6.0903e-06 0.266209 6.03254 0.567724 
0.00825 0.0031875 2.01164 9.39146e+20 6.24532e-06 -0.999449 8.32274 -0.0261698 
0.00675 0.0035625 1.99676 8.8884e+20 5.91078e-06 -1.0355 3.59666 -0.210012 
0.00675 0.0039375 1.93781 9.1385e+20 6.0771e-06 -3.75609 3.88235 -2.90718 
0.00675 0.0043125 2.00101 8.64337e+20 5.74784e-06 0.632981 6.12047 1.00039 
0.01875 0.0136875 1.90484 7.24194e+20 4.81589e-06 -2.6159 -1.68865 0.448366 
0.01875 0.0140625 1.97653 7.34392e+20 4.88371e-06 0.648113 0.782084 2.14678 
0.0075 0.000375 1.97436 1.2242e+21 8.14091e-06 22.5101 2.67581 -0.792887 
0.0105 0.000375 2.08961 1.13177e+21 7.52626e-06 4.88307 2.08809 -2.34502 
0.0105 0.001125 2.06378 1.08906e+21 7.24225e-06 11.7894 8.48725 -0.103174 
0.00675 0.0046875 1.98388 8.67624e+20 5.7697e-06 0.57807 1.46246 -2.65593 
0.00675 0.0050625 2.01276 8.59488e+20 5.71559e-06 1.32081 4.23943 -1.40405 
0.01875 0.0144375 2.05603 7.11397e+20 4.73079e-06 -2.0776 -3.1157 -0.127239 
0.01875 0.0148125 1.98777 7.13762e+20 4.74652e-06 1.19041 -2.6564 2.29023 
0.01875 0.0215625 2.01306 7.33584e+20 4.87833e-06 -0.352189 0.74117 -0.254291 
0.00675 0.0016875 1.94186 1.1336e+21 7.53842e-06 8.41349 12.1028 1.40712 
0.00825 0.0016875 1.9344 1.06302e+21 7.06911e-06 9.95928 10.2171 0.715124 
0.00675 0.0020625 1.77861 9.82357e+20 6.53268e-06 3.89323 9.1587 1.01304 
0.00825 0.0020625 1.85837 9.01299e+20 5.99364e-06 0.872443 9.64482 0.491409 
0.009375 0.0117188 2.02248 7.4075e+20 4.92599e-06 3.94957 4.5916 0.580199 
0.010125 0.0117188 1.98756 7.81313e+20 5.19573e-06 -1.14722 0.500376 -0.999535 
0.009375 0.0119063 2.05863 7.7186e+20 5.13287e-06 0.36673 4.68162 0.00109432 
0.010125 0.0119063 2.00273 8.01328e+20 5.32883e-06 1.02541 1.98177 -0.979475 
0.021375 0.0169687 1.96523 7.15661e+20 4.75915e-06 -5.24678 1.89888 0.275014 
0.022125 0.0169687 2.09535 7.04323e+20 4.68375e-06 0.0557457 2.73064 -3.03676 
0.021375 0.0171562 1.97776 7.52039e+20 5.00106e-06 -1.17434 -1.95349 2.19127 
0.022125 0.0171562 2.07165 7.2895e+20 4.84751e-06 2.42082 -2.72908 3.15693 
0.01875 0.0129375 1.97416 7.37745e+20 4.90601e-06 -3.17656 -2.14573 3.95671 
0.01875 0.0133125 2.03295 7.36801e+20 4.89973e-06 -1.50854 0.027527 -1.39892 
0.00675 0.0024375 1.95297 9.50837e+20 6.32307e-06 0.51027 4.75136 1.64639 
0.00825 0.0024375 2.05359 1.04471e+21 6.94732e-06 1.61638 7.14847 -1.03601 
0.00675 0.0028125 2.06121 9.09351e+20 6.04719e-06 -0.0314835 4.32399 -1.77947 
0.00825 0.0028125 2.02202 9.4968e+20 6.31537e-06 -0.820635 9.92234 0.589121 
0.01275 0.0061875 1.97381 7.45081e+20 4.95479e-06 -3.66795 -3.3703 -1.7411 
0.01275 0.0065625 1.95161 7.18673e+20 4.77918e-06 -1.0203 -2.61527 -0.695438 
0.01875 0.0046875 2.00939 7.2735e+20 4.83688e-06 1.6171 -0.984942 -4.27108 
0.024375 0.0169687 1.93431 6.76977e+20 4.5019e-06 0.0803579 1.14157 -2.85168 
0.025875 0.0173437 2.16776 7.24984e+20 4.82115e-06 -2.51926 -2.77949 -0.296173 
0.025875 0.0175312 1.94343 7.01737e+20 4.66655e-06 -1.2343 -3.37145 -2.03835 
0.026625 0.0175312 1.94032 7.4499e+20 4.95418e-06 0.401787 -2.54627 -1.85083 
0.025125 0.0194062 1.90239 7.1675e+20 4.76639e-06 -1.55084 -0.74071 -0.313902 
0.020625 0.0177187 1.94274 7.57546e+20 5.03768e-06 2.19164 2.30694 0.489777 
0.019875 0.0179062 2.03442 7.237e+20 4.8126e-06 0.934701 -1.23627 -1.99429 
0.022875 0.0199687 1.97902 7.32267e+20 4.86957e-06 -0.94277 -2.27311 -0.402484 
0.022875 0.0201562 1.94577 7.39492e+20 4.91762e-06 3.10459 1.10899 -0.792626 
0.025875 0.0139688 2.0078 7.51879e+20 5e-06 1.02545 -0.63964 0.770474 
0.026625 0.0139688 2.08912 7.08938e+20 4.71444e-06 0.660186 0.513018 0.676912 
0.025875 0.0141563 1.98365 7.43519e+20 4.9444e-06 -0.661435 1.64198 -1.77378 
0.026625 0.0141563 2.02393 7.77897e+20 5.17302e-06 0.660029 0.613673 -2.29753 
0.021375 0.0150937 2.00383 6.93589e+20 4.61237e-06 -1.52117 0.669474 -1.60607 
0.021375 0.0152812 1.9333 7.40626e+20 4.92516e-06 1.88457 -1.70053 1.12717 
0.021375 0.0180937 2.03453 7.4122e+20 4.92912e-06 3.31983 -2.30615 1.92818 
0.022125 0.0182812 1.99072 7.26808e+20 4.83327e-06 1.186 -1.82804 -0.620891 
0.019875 0.0150937 2.04512 7.22832e+20 4.80683e-06 -0.968775 0.838508 -2.39012 
0.020625 0.0150937 1.94851 7.49826e+20 4.98634e-06 -0.504666 -0.129311 -1.53909 
0.019875 0.0152812 2.035 7.36182e+20 4.89561e-06 1.10912 -0.390914 -2.84482 
0.020625 0.0152812 2.02219 7.31738e+20 4.86606e-06 0.584215 0.0245071 1.87684 
0.01125 0.0091875 0 0 0 0 0 0 
0.01275 0.0076875 2.0199 7.10116e+20 4.72227e-06 -0.375962 2.70995 -0.273313 
0.01275 0.0084375 1.92846 7.36907e+20 4.90043e-06 0.425821 -1.18117 0.504775 
0.01275 0.0054375 2.02922 7.70773e+20 5.12564e-06 -1.31581 1.3332 1.20785 
0.01275 0.0058125 1.92976 7.21959e+20 4.80103e-06 -2.46721 -0.777853 -0.91096 
0.01275 0.0069375 1.94506 7.03532e+20 4.67849e-06 -1.78636 -0.201769 0.450219 
0.01275 0.0073125 2.06913 7.01551e+20 4.66532e-06 3.89096 -2.09148 -2.23622 
0.01875 0.0039375 1.90841 7.90441e+20 5.25644e-06 -0.475171 -0.940599 0.635047 
0.02025 0.0039375 2.02979 7.01337e+20 4.66389e-06 4.02288 0.848739 -0.518138 
0.01875 0.0043125 2.04524 7.55825e+20 5.02623e-06 1.96912 0.283933 -1.89743 
0.02325 0.0054375 1.96571 7.47227e+20 4.96906e-06 0.551739 -1.84748 -2.58044 
0.027375 0.0150937 1.93145 6.82342e+20 4.53757e-06 1.94942 -1.15055 -3.713 
0.028125 0.0150937 1.99247 7.43827e+20 4.94645e-06 -0.661776 0.772215 -3.81062 
0.027375 0.0152812 1.97232 7.19147e+20 4.78233e-06 -2.09773 3.80925 -1.15714 
0.028125 0.0152812 1.99796 7.78397e+20 5.17634e-06 1.4041 0.0932396 -3.22488 
0.024375 0.0165937 1.95097 7.2024e+20 4.78959e-06 1.02717 -0.521185 -1.51343 
0.025125 0.0165937 1.92143 7.24332e+20 4.81681e-06 -1.15819 1.19468 -0.580739 
0.025125 0.0167812 1.97225 7.22309e+20 4.80335e-06 1.80143 2.2811 -2.50627 
0.027375 0.0169687 1.93521 7.15661e+20 4.75915e-06 0.645907 -0.618477 -0.690031 
0.027375 0.0171562 1.94923 7.10478e+20 4.72468e-06 1.39526 1.42234 4.90755 
0.028125 0.0171562 2.01443 6.80133e+20 4.52288e-06 -0.719783 -1.28964 -2.17241 
0.028875 0.0180937 1.97667 7.3434e+20 4.88336e-06 0.207898 3.5287 -3.89678 
0.029625 0.0182812 2.04109 7.38571e+20 4.9115e-06 -1.1443 0.519659 -0.510254 
0.029625 0.0186562 2.02423 7.40105e+20 4.9217e-06 -0.0512679 2.27136 1.93481 
0.025875 0.0188437 1.95594 7.26134e+20 4.82879e-06 2.05453 2.19777 -0.367504 
0.026625 0.0188437 1.92387 7.39948e+20 4.92065e-06 3.83766 1.83884 0.0760255 
0.025875 0.0190312 1.93333 6.84488e+20 4.55184e-06 -1.27162 0.0684953 2.10987 
0.026625 0.0190312 2.0422 7.18385e+20 4.77726e-06 -0.531873 -0.417543 -1.11982 
0.026625 0.0192187 1.93903 7.55543e+20 5.02436e-06 2.32157 3.90989 1.4904 
0.025875 0.0194062 2.01848 6.98671e+20 4.64616e-06 -0.663228 -2.61451 0.811299 
0.027375 0.0192187 2.07838 7.18443e+20 4.77765e-06 -2.48805 2.87497 -1.66627 
0.028875 0.0192187 2.04109 7.44354e+20 4.94995e-06 4.57166 2.04386 0.680387 
0.029625 0.0192187 1.97306 7.2551e+20 4.82464e-06 0.103735 2.85637 2.84049 
0.026625 0.0199687 2.00127 7.27166e+20 4.83565e-06 0.790085 -1.01147 -0.013213 
0.025875 0.0201562 1.98511 7.22647e+20 4.8056e-06 -1.5298 -2.42563 -1.62 
0.029625 0.0195938 2.00569 7.01805e+20 4.667e-06 -0.737054 -0.808313 -4.68305 
0.028125 0.0201562 2.05476 7.29385e+20 4.85041e-06 -0.38681 2.03835 0.282197 
0.028125 0.0205312 1.98128 7.12205e+20 4.73616e-06 -1.40407 2.40496 -0.362611 
0.028875 0.0203437 1.99155 7.18769e+20 4.77981e-06 1.92357 -0.057921 0.446887 
0.029625 0.0203437 2.05928 7.26557e+20 4.8316e-06 -3.21911 1.34049 1.74607 
0.027375 0.0207187 2.03711 6.89918e+20 4.58795e-06 1.02833 -0.246792 -1.47442 
0.010875 0.00984375 1.94565 8.22059e+20 5.46669e-06 5.86016 4.37104 3.65505 
0.011625 0.00984375 2.0612 7.65722e+20 5.09205e-06 3.77445 -4.31648 4.74541 
0.010875 0.0100312 2.1074 7.97668e+20 5.30449e-06 3.62369 -0.480364 -1.22176 
0.011625 0.0100312 2.03189 7.53666e+20 5.01188e-06 -0.179407 0.181991 2.29489 
0.013875 0.0109687 2.06568 7.50127e+20 4.98835e-06 4.81611 -2.50051 2.57134 
0.014625 0.0109687 1.98331 7.35682e+20 4.89228e-06 -1.14732 2.40191 0.939547 
0.013875 0.0111562 2.02582 7.22303e+20 4.80331e-06 2.50084 -3.08927 -0.395869 
0.014625 0.0111562 1.99116 7.39549e+20 4.918e-06 2.35812 -0.450322 2.88307 
0.013875 0.0113437 2.04091 7.28323e+20 4.84335e-06 -2.25216 -2.17683 -1.0279 
0.014625 0.0113437 2.04443 7.39297e+20 4.91633e-06 5.48025 4.14691 -2.7695 
0.013875 0.0115312 1.93189 7.92054e+20 5.26716e-06 6.04106 -2.50232 3.03731 
0.013875 0.0117188 2.00667 7.88073e+20 5.24069e-06 5.15595 -0.755417 -1.93317 
0.014625 0.0117188 1.93744 7.39784e+20 4.91957e-06 -0.0863036 2.03474 4.12545 
0.013875 0.0119063 1.98689 7.57602e+20 5.03805e-06 3.61355 -3.65647 1.17372 
0.013875 0.0120938 2.01918 7.26203e+20 4.82925e-06 3.35748 -0.171766 1.11558 
0.014625 0.0120938 1.9814 7.10294e+20 4.72346e-06 1.33522 -4.04385 -2.55752 
0.013875 0.0122813 1.95596 7.4737e+20 4.97001e-06 -0.104056 0.639332 -1.06122 
0.014625 0.0122813 1.99282 7.93447e+20 5.27643e-06 1.85085 1.66584 1.4706 
0.022875 0.0120938 2.01684 7.24332e+20 4.81681e-06 1.16745 -2.91093 -0.897228 
0.023625 0.0120938 2.02181 7.15909e+20 4.7608e-06 1.35086 0.829032 1.13706 
0.022875 0.0122813 2.03756 7.63037e+20 5.07419e-06 1.22145 0.0808418 -1.56343 
0.023625 0.0122813 1.92969 7.37233e+20 4.9026e-06 -0.979824 2.7105 3.56243 
0.021375 0.0158438 1.91153 7.13617e+20 4.74555e-06 1.88769 -1.6007 0.747991 
0.021375 0.0160313 2.00772 7.56101e+20 5.02807e-06 0.595635 -0.426024 2.44793 
0.022875 0.0169687 1.98193 7.44341e+20 4.94987e-06 -1.63171 -1.89478 -2.56372 
0.023625 0.0169687 2.04666 7.4234e+20 4.93656e-06 0.471963 2.67666 -0.287068 
0.023625 0.0171562 1.96089 7.08499e+20 4.71152e-06 -1.36411 0.965832 -0.999868 
0.019875 0.0175312 1.98769 7.35307e+20 4.88979e-06 -0.220252 -0.486183 -0.554197 
0.020625 0.0175312 1.98033 6.80433e+20 4.52488e-06 0.53814 -1.56457 2.48665 
0.019875 0.0188437 1.94995 6.925e+20 4.60512e-06 0.782614 -4.64532 2.00839 
0.020625 0.0188437 1.93733 7.03311e+20 4.67702e-06 -2.33391 1.4701 2.02327 
0.022125 0.0192187 1.98037 7.43765e+20 4.94604e-06 0.0533603 0.376746 0.19477 
0.021375 0.0194062 2.02814 7.20833e+20 4.79354e-06 1.16016 -3.01068 1.11114 
0.022125 0.0194062 1.98757 7.22582e+20 4.80517e-06 -1.47266 -2.52811 -0.979693 
0.022875 0.0194062 1.97077 7.05086e+20 4.68882e-06 3.0747 1.88211 0.665257 
0.021375 0.0197812 2.05972 7.43785e+20 4.94617e-06 -2.77351 1.13701 0.98926 
0.025875 0.0109687 2.09694 7.48063e+20 4.97462e-06 0.0951337 1.90607 -1.46134 
0.026625 0.0109687 1.91786 7.33618e+20 4.87856e-06 5.25247 -0.669088 -1.88962 
0.025875 0.0111562 2.13805 6.91869e+20 4.60093e-06 1.69235 -0.959133 5.15828 
0.026625 0.0111562 2.01032 7.57809e+20 5.03943e-06 3.44559 3.87063 -0.926839 
0.015375 0.0120938 2.08724 7.14974e+20 4.75457e-06 -1.53798 2.60034 0.573383 
0.016125 0.0120938 1.97563 7.43048e+20 4.94127e-06 0.834714 -0.99088 -1.29178 
0.015375 0.0122813 1.96296 7.49213e+20 4.98227e-06 2.76105 3.9302 -3.34862 
0.016125 0.0122813 1.98151 7.49213e+20 4.98227e-06 2.30918 0.469853 3.41272 
0.015375 0.0124688 1.97746 6.97101e+20 4.63572e-06 -2.13263 3.81058 1.50713 
0.016125 0.0124688 1.94631 7.07994e+20 4.70816e-06 1.96472 7.28602 4.08766 
0.015375 0.0126563 2.02953 7.99075e+20 5.31385e-06 4.11031 5.08773 -2.84078 
0.016125 0.0126563 1.92771 7.37984e+20 4.90759e-06 -0.0946103 -1.03435 -4.77686 
0.018375 0.0109687 2.0124 7.36714e+20 4.89915e-06 -0.874333 0.775587 -0.681081 
0.019125 0.0109687 1.88419 7.58382e+20 5.04324e-06 -1.8094 6.94619 -3.44366 
0.018375 0.0111562 2.10067 6.81724e+20 4.53347e-06 2.56368 3.70956 -1.67492 
0.019125 0.0111562 1.96118 7.14187e+20 4.74934e-06 0.350305 1.22828 2.09759 
0.018375 0.0120938 1.97289 7.39305e+20 4.91638e-06 1.85162 3.99593 -0.166078 
0.019125 0.0120938 2.00135 7.34626e+20 4.88526e-06 5.61297 0.477163 4.05596 
0.018375 0.0122813 2.10276 7.60272e+20 5.05581e-06 -1.93557 1.69134 -0.124848 
0.019125 0.0122813 2.00433 6.95764e+20 4.62683e-06 1.47668 0.0910703 5.15461 
0.019875 0.0139688 1.96452 7.21091e+20 4.79525e-06 -1.20884 -0.848629 4.23309 
0.020625 0.0139688 1.94987 7.12989e+20 4.74138e-06 1.20524 1.85573 -0.945662 
0.019875 0.0141563 1.93031 7.37923e+20 4.90719e-06 -0.514914 1.73112 -4.31707 
0.020625 0.0141563 1.97989 7.56311e+20 5.02947e-06 -1.24555 -1.20344 -1.03973 
0.022125 0.0212812 2.03462 7.26991e+20 4.83449e-06 0.534118 2.64918 0.846853 
0.027375 0.0214687 2.06123 7.13788e+20 4.74669e-06 -0.448753 2.42746 0.926496 
0.027375 0.0216562 2.02637 7.36745e+20 4.89936e-06 1.8568 7.53075 0.78795 
0.028125 0.0216562 1.95637 7.6178e+20 5.06584e-06 -2.69768 -8.14606 7.0566 
0.00675 0.0009375 1.94529 1.4879e+21 9.89452e-06 20.6987 6.42163 -0.480696 
0.00825 0.0009375 2.07537 1.19817e+21 7.9678e-06 10.1899 8.5788 0.468618 
0.00675 0.0013125 1.98141 1.42279e+21 9.46158e-06 22.9005 6.49718 3.04056 
0.00825 0.0013125 1.97912 1.04985e+21 6.9815e-06 7.74626 3.13989 1.81027 
0.02925 0.0046875 2.04248 7.56323e+20 5.02955e-06 2.7478 1.19535 0.657327 
0.027375 0.0120938 2.11459 7.32754e+20 4.87282e-06 -1.00433 0.135564 -3.08556 
0.028125 0.0120938 1.99709 7.70187e+20 5.12175e-06 3.13317 1.70901 -0.546103 
0.027375 0.0122813 1.84088 7.17881e+20 4.77391e-06 0.70175 -1.54156 -1.6846 
0.028125 0.0122813 1.92403 7.2341e+20 4.81068e-06 0.334422 2.15865 -1.52622 
0.028875 0.0135938 1.95551 7.3016e+20 4.85556e-06 2.6715 0.0406557 4.03672 
0.029625 0.0135938 2.02016 7.16006e+20 4.76144e-06 1.67873 -0.424802 0.903428 
0.028875 0.0137813 1.98189 7.58824e+20 5.04618e-06 -0.386229 0.137865 -2.11345 
0.029625 0.0137813 2.00319 7.38293e+20 4.90965e-06 0.787108 0.497371 -1.53329 
0.024375 0.0147187 1.9141 7.5432e+20 5.01623e-06 -1.43455 0.0840852 1.78401 
0.025125 0.0147187 2.05916 7.03571e+20 4.67875e-06 -1.20008 0.885035 1.77995 
0.024375 0.0149062 1.98384 7.0535e+20 4.69058e-06 1.23923 1.51762 1.24452 
0.025125 0.0149062 1.98268 7.12943e+20 4.74107e-06 2.72631 2.4422 0.720059 
0.028875 0.0150937 1.96607 7.50576e+20 4.99133e-06 0.810803 -4.74149 -0.10521 
0.029625 0.0150937 2.02429 7.41578e+20 4.93149e-06 -1.57046 2.24018 -0.629133 
0.028875 0.0152812 1.92611 7.21369e+20 4.79711e-06 -0.500627 -0.126067 -1.3739 
0.026625 0.0158438 1.95721 7.57191e+20 5.03532e-06 1.93667 0.99988 -0.857347 
0.025875 0.0160313 1.98671 7.68808e+20 5.11258e-06 -3.51065 -3.66315 2.49412 
0.026625 0.0160313 2.02578 7.2998e+20 4.85436e-06 3.34974 1.48923 0.623127 
0.028875 0.0158438 1.9514 7.72906e+20 5.13983e-06 1.28006 1.32156 -0.615795 
0.029625 0.0158438 1.94369 7.27189e+20 4.83581e-06 0.535939 -2.0744 3.31998 
0.029625 0.0160313 1.93536 7.1939e+20 4.78394e-06 -1.55193 -2.099 0.581196 
0.025875 0.0169687 2.01164 6.95652e+20 4.62609e-06 1.1476 0.0399026 -0.3379 
0.026625 0.0169687 1.98488 7.65017e+20 5.08736e-06 1.93161 -0.84852 1.50891 
0.026625 0.0171562 1.98676 7.01243e+20 4.66327e-06 0.852103 2.02784 -1.46485 
0.027375 0.0165937 2.01441 6.84091e+20 4.54921e-06 -4.35806 0.802766 1.33723 
0.028875 0.0169687 2.01911 7.35003e+20 4.88777e-06 1.53255 2.49577 2.67478 
0.028875 0.0171562 2.02639 7.2763e+20 4.83874e-06 -2.45732 1.51162 -0.374804 
0.026625 0.0177187 2.00712 7.0006e+20 4.6554e-06 -1.43335 3.27656 0.394651 
0.026625 0.0179062 1.98156 7.09163e+20 4.71593e-06 2.00987 2.70832 1.28428 
0.024375 0.0182812 2.00874 7.41047e+20 4.92796e-06 -0.00735009 3.63286 0.67296 
0.024375 0.0186562 1.97768 7.36465e+20 4.89749e-06 -0.727942 2.40718 4.22235 
0.025875 0.0186562 1.95636 7.12199e+20 4.73612e-06 0.0575525 -0.613371 -2.37233 
0.026625 0.0186562 2.00799 7.19479e+20 4.78453e-06 1.67717 2.16645 -0.760646 
0.028125 0.0184687 1.96827 7.34137e+20 4.88201e-06 -0.8884 -0.778861 -0.509589 
0.028125 0.0186562 2.07504 7.18872e+20 4.7805e-06 -0.451294 0.0084982 0.647244 
0.028875 0.0190312 2.05896 7.52282e+20 5.00268e-06 -0.419592 -0.0999679 1.94841 
0.025875 0.0197812 2.00365 7.2662e+20 4.83203e-06 -2.76033 1.02721 -0.378551 
0.025125 0.0205312 2.08021 7.42523e+20 4.93778e-06 -2.57344 -1.75106 0.527367 
0.007875 0.0113437 1.92365 7.63242e+20 5.07556e-06 -0.186339 1.89417 -0.355204 
0.008625 0.0113437 2.05487 7.73219e+20 5.14191e-06 -0.911917 1.68372 -4.34831 
0.007875 0.0115312 1.99676 8.37202e+20 5.56739e-06 -0.49679 3.29694 0.185613 
0.008625 0.0115312 1.94497 7.51813e+20 4.99956e-06 3.69605 2.11842 2.01391 
0.009375 0.0120938 1.9081 7.47728e+20 4.97239e-06 2.43184 -0.13589 -2.27152 
0.010125 0.0120938 2.05148 7.39305e+20 4.91638e-06 -3.31133 1.66818 -2.88689 
0.009375 0.0122813 1.93829 7.74095e+20 5.14773e-06 2.56152 0.483624 5.45545 
0.010125 0.0122813 2.0095 8.27545e+20 5.50317e-06 -3.84122 1.8015 -1.31497 
0.022875 0.0139688 2.02249 7.51879e+20 5e-06 1.03976 -1.685 0.722096 
0.023625 0.0139688 1.97731 7.5674e+20 5.03232e-06 -0.249445 5.45856 -1.06769 
0.022875 0.0141563 2.10115 7.13139e+20 4.74237e-06 -1.36158 -0.135948 -0.792937 
0.023625 0.0141563 1.88545 7.00347e+20 4.65731e-06 -0.55015 3.56807 2.84116 
0.022875 0.0158438 2.00451 7.03616e+20 4.67905e-06 2.09374 -2.21637 -0.569764 
0.023625 0.0158438 1.95532 7.27189e+20 4.83581e-06 -2.31591 0.278404 -0.772289 
0.023625 0.0160313 2.00403 7.46923e+20 4.96704e-06 -1.10094 -0.214896 -0.788407 
0.021375 0.0165937 2.01085 7.35245e+20 4.88938e-06 -0.454555 -0.0306109 0.688619 
0.022125 0.0167812 1.99145 6.59587e+20 4.38625e-06 -5.13388 -3.10927 -4.22251 
0.022875 0.0165937 2.04331 7.08645e+20 4.71249e-06 -1.8244 0.0392349 1.26555 
0.023625 0.0165937 2.02163 7.2365e+20 4.81227e-06 0.655658 -1.3698 1.65766 
0.022875 0.0167812 1.9221 7.16913e+20 4.76747e-06 0.199529 -0.887088 -2.10247 
0.023625 0.0167812 1.98407 7.25681e+20 4.82578e-06 0.0635359 -2.34542 -3.41084 
0.022875 0.0188437 2.1075 7.34542e+20 4.88471e-06 -0.0535086 1.57621 -1.21338 
0.022875 0.0190312 1.96259 7.13627e+20 4.74562e-06 2.25602 -1.24655 1.59788 
0.022125 0.0199687 1.98973 7.60605e+20 5.05802e-06 -0.820991 1.92528 0.399262 
0.02475 0.0031875 2.09563 7.10129e+20 4.72236e-06 0.309354 3.91141 -0.319016 
0.02625 0.0031875 2.0695 7.19006e+20 4.78139e-06 1.2082 -2.27913 1.00233 
0.02475 0.0035625 1.9578 7.24332e+20 4.81681e-06 0.352393 3.61691 -0.281346 
0.02625 0.0035625 2.02912 7.21155e+20 4.79568e-06 -1.82408 2.12294 -0.231082 
0.02925 0.0039375 2.06551 7.32236e+20 4.86937e-06 -4.69701 3.05399 0.679942 
0.02775 0.0043125 2.01594 7.28925e+20 4.84735e-06 2.4438 -3.85366 -2.28623 
0.02925 0.0043125 2.01206 7.40078e+20 4.92152e-06 1.69262 -1.81221 -0.817641 
0.025875 0.0135938 2.0459 7.3016e+20 4.85556e-06 0.883156 2.31017 1.29252 
0.025875 0.0137813 1.9721 7.0298e+20 4.67481e-06 -0.0208157 0.409199 0.406708 
0.027375 0.0143437 2.01915 7.39323e+20 4.9165e-06 1.61114 -0.415132 -0.683073 
0.027375 0.0145312 2.00445 7.29005e+20 4.84788e-06 -3.00206 2.78797 -2.90922 
0.028125 0.0145312 1.98429 7.30563e+20 4.85824e-06 4.26874 -2.20878 -0.0349038 
0.027375 0.0173437 1.95022 6.91704e+20 4.59983e-06 2.43404 -1.34111 -0.990368 
0.028125 0.0173437 2.02834 7.08018e+20 4.70832e-06 1.53621 -1.13485 1.07461 
0.028125 0.0175312 2.07627 7.54028e+20 5.01429e-06 0.419145 0.371674 2.92394 
0.027375 0.0177187 2.00286 7.21777e+20 4.79982e-06 -2.52578 -0.799774 3.79098 
0.028125 0.0177187 1.97748 7.17306e+20 4.77008e-06 -1.19007 0.59308 -2.85261 
0.028125 0.0179062 1.92759 7.36341e+20 4.89667e-06 -0.278991 3.20617 3.30706 
0.016875 0.0117188 1.98586 7.50408e+20 4.99021e-06 -2.88755 -0.371507 -0.730484 
0.017625 0.0117188 1.96983 7.64894e+20 5.08655e-06 -0.330149 -1.77115 2.54653 
0.016875 0.0119063 1.92614 7.10073e+20 4.72199e-06 1.22034 0.477273 2.22347 
0.017625 0.0119063 2.08271 7.42393e+20 4.93691e-06 2.12651 -1.73292 -1.00564 
0.019875 0.00909375 2.07557 7.2931e+20 4.84991e-06 1.63498 -0.450666 2.88132 
0.020625 0.00909375 1.9474 7.46734e+20 4.96578e-06 3.46591 -0.506984 -3.05294 
0.019875 0.00928125 2.06403 6.67019e+20 4.43568e-06 -4.08511 -3.74572 0.653513 
0.020625 0.00928125 2.0719 6.81652e+20 4.53299e-06 1.13775 0.156632 -0.775454 
0.018375 0.0113437 1.99086 7.2932e+20 4.84998e-06 1.4263 4.14375 -3.04878 
0.019125 0.0113437 2.0646 7.72222e+20 5.13527e-06 1.6478 -1.09796 -7.37694 
0.018375 0.0115312 2.08132 7.25313e+20 4.82333e-06 1.83968 -1.38556 3.04752 
0.019125 0.0115312 2.0117 7.46906e+20 4.96692e-06 -1.13987 -2.13167 0.0757383 
0.019875 0.0124688 1.87803 7.44301e+20 4.9496e-06 1.11793 -0.205216 2.8827 
0.020625 0.0124688 2.1132 7.30686e+20 4.85906e-06 0.967546 -0.25416 0.4744 
0.019875 0.0126563 2.05434 7.2612e+20 4.8287e-06 2.42043 -1.71918 1.21859 
0.020625 0.0126563 1.97052 7.29697e+20 4.85249e-06 0.663076 0.522453 0.612981 
0.022875 0.0150937 1.98739 7.29581e+20 4.85171e-06 0.970454 -2.45891 -1.0719 
0.023625 0.0150937 1.95632 7.29581e+20 4.85171e-06 -0.705842 -1.43417 0.950377 
0.022875 0.0152812 1.97494 7.38404e+20 4.91038e-06 -1.35145 -1.12756 1.2743 
0.023625 0.0152812 2.04386 7.32479e+20 4.87098e-06 -0.263268 0.542858 -3.98208 
0.020625 0.0169687 1.92696 7.45008e+20 4.9543e-06 -0.570316 2.48204 0.962903 
0.020625 0.0171562 1.97795 7.68531e+20 5.11073e-06 -1.36323 -2.53346 2.67577 
0.022875 0.0184687 2.04578 7.07173e+20 4.7027e-06 -0.328613 0.69331 -0.156585 
0.022875 0.0186562 1.95944 7.14019e+20 4.74823e-06 0.307455 -2.62997 2.75506 
0.019875 0.0199687 2.00912 7.1583e+20 4.76027e-06 -1.05267 -3.6667 2.50665 
0.020625 0.0199687 1.97507 7.04495e+20 4.68489e-06 0.0600776 -1.19622 0.624286 
0.020625 0.0180937 1.91256 6.86176e+20 4.56307e-06 -0.0324784 3.08532 -0.743578 
0.019875 0.0182812 2.00731 7.01426e+20 4.66448e-06 -2.41964 -2.32966 -0.872583 
0.020625 0.0182812 2.00134 7.75097e+20 5.15439e-06 2.66048 0.178751 1.39776 
0.02475 0.0046875 2.00699 7.28557e+20 4.8449e-06 -0.291302 -0.882106 -2.00694 
0.024375 0.0117188 1.96454 7.30126e+20 4.85534e-06 2.10847 -1.8458 -3.52128 
0.025125 0.0117188 2.02254 7.73586e+20 5.14435e-06 -0.638074 0.430486 0.417465 
0.024375 0.0119063 1.98703 6.93914e+20 4.61453e-06 -2.33837 1.61911 -0.698598 
0.025125 0.0119063 1.9335 7.11974e+20 4.73463e-06 0.799609 -4.0097 2.8348 
0.026625 0.0128438 2.02863 7.03183e+20 4.67617e-06 -0.0601083 -0.854114 -3.54244 
0.025875 0.0130313 1.97833 7.33017e+20 4.87456e-06 -0.705498 -1.80768 -5.06843 
0.026625 0.0130313 2.00237 7.56466e+20 5.0305e-06 3.82378 -0.560238 0.972668 
0.025875 0.0132188 1.94001 7.02927e+20 4.67447e-06 -1.18518 1.88881 -1.40621 
0.026625 0.0132188 2.02793 7.17482e+20 4.77126e-06 -2.23597 -0.125569 -2.19434 
0.026625 0.0134063 1.96809 6.8381e+20 4.54733e-06 2.97115 0.975581 -3.08689 
0.028875 0.0139688 2.07157 7.15419e+20 4.75754e-06 1.03777 -1.30565 1.02071 
0.029625 0.0139688 1.99587 7.1785e+20 4.7737e-06 4.20475 -0.530057 -2.66833 
0.028875 0.0141563 1.97784 7.17136e+20 4.76896e-06 -1.53455 2.06306 0.283144 
0.029625 0.0141563 1.9656 6.97949e+20 4.64136e-06 -1.31659 -0.574893 -0.387531 
0.025875 0.0143437 2.00949 6.99872e+20 4.65415e-06 -1.24074 1.17851 1.22836 
0.026625 0.0143437 1.92542 6.90403e+20 4.59118e-06 -0.271166 5.06084 2.40963 
0.025875 0.0145312 1.98717 7.33678e+20 4.87896e-06 -0.535788 2.26879 1.79667 
0.026625 0.0145312 2.02881 7.1187e+20 4.73394e-06 1.5218 -0.0613602 0.249999 
0.025125 0.0150937 1.97024 7.22082e+20 4.80185e-06 2.62257 2.36139 0.117579 
0.024375 0.0152812 2.01239 7.31738e+20 4.86606e-06 -3.95823 -2.01104 -3.53776 
0.028875 0.0154687 1.98319 7.41891e+20 4.93358e-06 -1.54227 -1.91105 2.35803 
0.029625 0.0154687 1.99978 7.1482e+20 4.75356e-06 1.12928 3.22312 0.673548 
0.028875 0.0156563 2.04351 6.95416e+20 4.62452e-06 -0.546793 -0.413169 1.77881 
0.029625 0.0156563 2.01385 7.50356e+20 4.98987e-06 0.504233 -2.63644 3.19043 
0.025875 0.0162188 2.01147 7.55036e+20 5.02099e-06 -2.06818 2.31663 1.41962 
0.025875 0.0164062 1.94013 6.96738e+20 4.63331e-06 -1.60029 -1.90977 -0.766801 
0.026625 0.0164062 2.03177 7.10535e+20 4.72506e-06 0.0590668 -0.113051 -1.06353 
0.027375 0.0162188 2.03647 6.65715e+20 4.42701e-06 -1.16604 4.07643 -0.231772 
0.028125 0.0164062 2.04625 7.57444e+20 5.037e-06 0.897534 -1.74042 1.61377 
0.028875 0.0162188 2.01711 7.65503e+20 5.09059e-06 -1.98227 4.34717 5.76807 
0.029625 0.0162188 2.10905 7.58525e+20 5.04419e-06 -0.729325 -1.25953 4.45 
0.028875 0.0164062 2.01981 7.27781e+20 4.83974e-06 4.16935 2.44368 -2.25214 
0.029625 0.0164062 1.87523 7.50546e+20 4.99113e-06 -0.0620436 -1.49218 -0.0358571 
0.025875 0.0165937 1.98753 7.12737e+20 4.7397e-06 -0.796949 -2.36111 -4.64073 
0.026625 0.0165937 2.07499 7.32516e+20 4.87123e-06 0.887058 0.376087 -2.79925 
0.025875 0.0167812 2.04652 7.61425e+20 5.06348e-06 -1.45854 2.72914 -0.652833 
0.029625 0.0165937 2.07437 7.66619e+20 5.09801e-06 -1.35309 -0.362542 -0.0315099 
0.029625 0.0167812 2.02934 7.46588e+20 4.96481e-06 1.67584 0.241822 -0.351176 
0.025875 0.0182812 2.0718 7.29904e+20 4.85386e-06 0.89523 1.31392 -1.52159 
0.026625 0.0182812 2.04845 7.54048e+20 5.01442e-06 -0.353922 0.298766 0.11898 
0.027375 0.0190312 2.02341 7.16006e+20 4.76144e-06 4.49743 0.863105 0.113615 
0.028125 0.0190312 1.9952 7.10654e+20 4.72585e-06 -1.34675 -3.27471 1.54901 
0.025125 0.0197812 2.05081 7.66098e+20 5.09455e-06 4.85301 -1.75274 -0.748105 
0.009375 0.0102187 1.97905 8.02967e+20 5.33973e-06 3.04786 0.0568431 -0.10217 
0.010125 0.0102187 2.01261 7.69741e+20 5.11878e-06 0.765425 0.0944408 2.36912 
0.009375 0.0104062 1.94167 8.51579e+20 5.663e-06 -0.95086 0.973141 0.116447 
0.010125 0.0104062 2.01817 8.0155e+20 5.33031e-06 -0.775815 2.07972 -1.06276 
0.007875 0.0105937 2.01489 8.11935e+20 5.39937e-06 -0.154891 0.295106 -1.00544 
0.008625 0.0105937 2.0238 7.54245e+20 5.01573e-06 -0.190304 0.428811 2.05605 
0.007875 0.0107812 1.90856 8.1671e+20 5.43112e-06 0.45692 3.23701 -0.404578 
0.008625 0.0107812 2.01403 8.03064e+20 5.34037e-06 1.69289 0.4865 2.35816 
0.007875 0.0117188 2.03398 7.8421e+20 5.215e-06 2.9003 1.38563 -3.0089 
0.008625 0.0117188 1.94145 7.91936e+20 5.26638e-06 3.26278 1.69058 -3.99917 
0.007875 0.0119063 1.90479 7.34788e+20 4.88634e-06 -3.79709 4.14398 2.93099 
0.008625 0.0119063 1.94397 8.14636e+20 5.41733e-06 2.06409 3.30871 1.08146 
0.006375 0.0120938 2.0033 8.65057e+20 5.75263e-06 -0.0856142 1.31153 -4.05121 
0.007125 0.0120938 1.9739 7.82353e+20 5.20265e-06 0.330572 2.70893 4.02306 
0.006375 0.0122813 2.04283 8.44939e+20 5.61884e-06 -2.21302 0.298315 0.820904 
0.007125 0.0122813 2.04241 7.89761e+20 5.25191e-06 0.63321 2.19496 0.426709 
0.010875 0.0120938 1.90684 7.84225e+20 5.2151e-06 3.47833 1.21043 -0.960356 
0.011625 0.0120938 2.00559 8.04813e+20 5.35201e-06 -0.0534263 0.150558 2.27587 
0.010875 0.0122813 1.98834 7.69487e+20 5.11709e-06 2.0856 -3.77657 1.70102 
0.011625 0.0122813 2.06049 7.41841e+20 4.93324e-06 1.3767 0.0407598 -1.49801 
0.012375 0.0105937 2.01266 7.45699e+20 4.9589e-06 1.21516 0.605599 -2.12436 
0.013125 0.0105937 1.94955 7.33947e+20 4.88075e-06 0.469432 0.404091 0.586983 
0.012375 0.0107812 2.00141 7.48476e+20 4.97737e-06 2.08374 -3.28491 2.15626 
0.013125 0.0107812 2.04796 7.57924e+20 5.04019e-06 -2.28476 2.53009 -1.82353 
0.022875 0.0124688 1.98505 6.91655e+20 4.59951e-06 0.230748 1.05861 -4.14526 
0.023625 0.0124688 1.92013 7.02547e+20 4.67194e-06 1.68312 1.56045 -1.57676 
0.022875 0.0126563 2.00946 7.0287e+20 4.67409e-06 0.716127 0.659109 -2.89511 
0.023625 0.0126563 2.00634 7.24332e+20 4.81681e-06 -1.88317 2.51672 -5.25193 
0.021375 0.0128438 1.93357 7.74559e+20 5.15082e-06 0.74058 0.506886 1.41736 
0.022125 0.0128438 1.96023 7.10233e+20 4.72305e-06 -0.598991 -0.405716 1.97417 
0.021375 0.0130313 2.00907 7.38228e+20 4.90922e-06 -2.65748 1.08278 -0.65458 
0.022125 0.0130313 2.09527 6.98277e+20 4.64354e-06 0.0706709 1.73724 -1.26418 
0.022875 0.0128438 2.07771 7.54292e+20 5.01604e-06 2.79565 0.788732 1.13752 
0.023625 0.0128438 1.99226 7.11114e+20 4.72891e-06 -0.407726 -0.626252 -2.50731 
0.022875 0.0130313 2.00243 7.66888e+20 5.09981e-06 -0.375519 3.48265 -1.19219 