ITEM: TIMESTEP
500000
ITEM: NUMBER OF CELLS
40725
ITEM: BOX BOUNDS oo ao pp
0 0.12
0 0.03
-0.1 0.1
ITEM: CELLS xc yc f_out[1] f_out[2] f_out[3] f_out[4] f_out[5] f_out[6] 
0.003 0.00375 0 0 0 0 0 0 
0.003 0.00525 0 0 0 0 0 0 
0.003 0.00675 0 0 0 0 0 0 
0.003 0.00825 0 0 0 0 0 0 
0.003 0.00975 0 0 0 0 0 0 
0.003 0.01125 0 0 0 0 0 0 
0.003 0.01275 0 0 0 0 0 0 
0.003 0.01425 0 0 0 0 0 0 
0.003 0.01575 0 0 0 0 0 0 
0.003 0.01725 0 0 0 0 0 0 
0.003 0.01875 0 0 0 0 0 0 
0.003 0.02025 0 0 0 0 0 0 
0.003 0.02175 0 0 0 0 0 0 
0.003 0.02325 0 0 0 0 0 0 
0.027 0.02325 0 0 0 0 0 0 
0.003 0.02475 0 0 0 0 0 0 
0.027 0.02475 0 0 0 0 0 0 
0.003 0.02625 0 0 0 0 0 0 
0.027 0.02625 0 0 0 0 0 0 
0.003 0.02775 0 0 0 0 0 0 
0.027 0.02775 0 0 0 0 0 0 
0.003 0.02925 0 0 0 0 0 0 
0.027 0.02925 0 0 0 0 0 0 
0.009 0.01425 0 0 0 0 0 0 
0.009 0.01575 0 0 0 0 0 0 
0.009 0.01725 0 0 0 0 0 0 
0.009 0.01875 0 0 0 0 0 0 
0.009 0.02025 0 0 0 0 0 0 
0.009 0.02175 0 0 0 0 0 0 
0.009 0.02325 0 0 0 0 0 0 
0.009 0.02475 0 0 0 0 0 0 
0.009 0.02625 0 0 0 0 0 0 
0.009 0.02775 0 0 0 0 0 0 
0.009 0.02925 0 0 0 0 0 0 
0.015 0.01425 0 0 0 0 0 0 
0.015 0.01575 0 0 0 0 0 0 
0.015 0.01725 0 0 0 0 0 0 
0.015 0.01875 0 0 0 0 0 0 
0.015 0.02025 0 0 0 0 0 0 
0.015 0.02175 0 0 0 0 0 0 
0.015 0.02325 0 0 0 0 0 0 
0.015 0.02475 0 0 0 0 0 0 
0.015 0.02625 0 0 0 0 0 0 
0.015 0.02775 0 0 0 0 0 0 
0.015 0.02925 0 0 0 0 0 0 
0.021 0.02325 0 0 0 0 0 0 
0.021 0.02475 0 0 0 0 0 0 
0.021 0.02625 0 0 0 0 0 0 
0.021 0.02775 0 0 0 0 0 0 
0.021 0.02925 0 0 0 0 0 0 
0.0015 0.000375 0 0 0 0 0 0 
0.0015 0.001125 0 0 0 0 0 0 
0.0015 0.001875 0 0 0 0 0 0 
0.0015 0.002625 0 0 0 0 0 0 
0.0045 0.002625 0 0 0 0 0 0 
0.0255 0.022125 0 0 0 0 0 0 
0.0285 0.022125 0 0 0 0 0 0 
0.0105 0.000375 2.1173 5.59478e+21 3.72053e-05 2.56803 9.95458 -1.83643 
0.0075 0.013125 0 0 0 0 0 0 
0.0105 0.013125 0 0 0 0 0 0 
0.0135 0.013125 0 0 0 0 0 0 
0.0165 0.013125 0 0 0 0 0 0 
0.0195 0.022125 0 0 0 0 0 0 
0.0225 0.022125 0 0 0 0 0 0 
0.0135 0.000375 1.9617 2.4333e+21 1.61815e-05 1.57098 -1.62432 2.409 
0.00375 0.0001875 1.89283 1.28439e+22 8.54117e-05 31.1749 -0.666087 -0.599453 
0.00525 0.0001875 1.70544 1.01406e+22 6.74353e-05 50.0376 4.71802 0.185278 
0.00375 0.0020625 0 0 0 0 0 0 
0.00525 0.0020625 0 0 0 0 0 0 
0.00675 0.0001875 1.8244 6.56426e+21 4.36523e-05 58.6205 2.88252 1.72983 
0.00825 0.0001875 2.13479 4.7987e+21 3.19113e-05 30.4274 2.51143 -0.0844563 
0.00825 0.0005625 2.03535 5.06529e+21 3.36842e-05 30.0414 7.55769 0.659496 
0.00975 0.0016875 2.0177 4.4986e+21 2.99157e-05 -1.61273 15.9352 -0.111865 
0.01125 0.0016875 0 0 0 0 0 0 
0.01125 0.0020625 0 0 0 0 0 0 
0.01125 0.0031875 0 0 0 0 0 0 
0.01125 0.0035625 0 0 0 0 0 0 
0.01125 0.0046875 0 0 0 0 0 0 
0.01125 0.0050625 0 0 0 0 0 0 
0.01125 0.0054375 0 0 0 0 0 0 
0.01125 0.0058125 0 0 0 0 0 0 
0.01125 0.0061875 0 0 0 0 0 0 
0.01125 0.0065625 0 0 0 0 0 0 
0.01125 0.0076875 0 0 0 0 0 0 
0.01125 0.0080625 0 0 0 0 0 0 
0.01125 0.0084375 0 0 0 0 0 0 
0.01125 0.0088125 0 0 0 0 0 0 
0.01125 0.0091875 0 0 0 0 0 0 
0.01125 0.0024375 0 0 0 0 0 0 
0.01125 0.0028125 0 0 0 0 0 0 
0.01125 0.0039375 0 0 0 0 0 0 
0.01125 0.0043125 0 0 0 0 0 0 
0.01125 0.0069375 0 0 0 0 0 0 
0.01125 0.0073125 0 0 0 0 0 0 
0.01275 0.0016875 2.07759 2.5622e+21 1.70386e-05 2.22106 -1.86963 -0.278745 
0.02775 0.0009375 1.97554 2.50196e+21 1.66381e-05 1.94619 1.01982 -1.49842 
0.02925 0.0009375 1.95799 2.63778e+21 1.75412e-05 -2.78077 1.77463 3.44049 
0.003375 0.00046875 1.83947 1.17227e+22 7.79562e-05 27.1693 -6.77912 2.49381 
0.004125 0.00046875 1.87996 1.24102e+22 8.2528e-05 33.4748 -1.83143 -5.78691 
0.003375 0.00065625 1.96507 1.34337e+22 8.93343e-05 23.383 -5.16464 3.76288 
0.004875 0.00046875 1.77154 1.02855e+22 6.83987e-05 40.234 -0.437328 4.55883 
0.005625 0.00046875 1.70999 8.76442e+21 5.82834e-05 48.8388 6.75961 3.77846 
0.004875 0.00065625 1.76084 1.09167e+22 7.25962e-05 37.9341 -3.37811 -1.93692 
0.005625 0.00065625 1.75567 9.12313e+21 6.06688e-05 48.5618 2.19617 -0.293497 
0.003375 0.00084375 1.9908 1.36606e+22 9.08433e-05 27.0044 0.0449061 3.48966 
0.003375 0.00103125 1.85061 1.36173e+22 9.05552e-05 23.57 -2.15888 -2.48127 
0.005625 0.00084375 1.81662 8.73222e+21 5.80693e-05 47.756 3.20869 1.09863 
0.004875 0.00103125 1.80467 1.13588e+22 7.55363e-05 38.541 2.00753 3.6158 
0.005625 0.00103125 1.76075 8.68101e+21 5.77287e-05 39.9968 -1.64174 -2.26526 
0.005625 0.00140625 1.85389 8.74832e+21 5.81763e-05 26.1907 2.2948 0.199329 
0.003375 0.00159375 1.91335 1.40965e+22 9.37417e-05 20.6824 -3.7466 1.05932 
0.004125 0.00159375 1.82734 1.26973e+22 8.4437e-05 16.4587 -3.16265 1.13989 
0.003375 0.00178125 0 0 0 0 0 0 
0.004125 0.00178125 0 0 0 0 0 0 
0.024375 0.00421875 1.98999 2.55394e+21 1.69837e-05 2.49591 1.87223 -0.639376 
0.025125 0.00421875 1.89373 2.52443e+21 1.67875e-05 3.17681 1.32289 0.183312 
0.024375 0.00440625 1.96495 2.46324e+21 1.63806e-05 1.21121 4.3454 0.478558 
0.025125 0.00440625 2.06816 2.5891e+21 1.72175e-05 0.134523 1.94819 -1.0531 
0.025875 0.00421875 2.08261 2.52175e+21 1.67696e-05 4.78898 2.53822 1.40533 
0.025875 0.00440625 2.01722 2.59167e+21 1.72346e-05 -0.465697 -1.17745 4.36097 
0.026625 0.00440625 1.93034 2.40673e+21 1.60048e-05 2.55275 0.597663 3.22687 
0.024375 0.00459375 2.02595 2.57951e+21 1.71537e-05 0.258647 -1.78856 0.66788 
0.025875 0.00478125 2.06748 2.59671e+21 1.72681e-05 3.02827 0.41826 -1.01526 
0.029625 0.00459375 1.99432 2.52777e+21 1.68097e-05 2.67348 -0.182394 -0.00571045 
0.028875 0.00478125 2.00618 2.69376e+21 1.79135e-05 1.67055 3.6994 -0.120707 
0.029625 0.00478125 2.00314 2.49965e+21 1.66227e-05 2.20199 3.42917 1.47639 
0.024375 0.00534375 2.05872 2.53728e+21 1.68729e-05 0.66914 -1.5491 -0.65737 
0.025125 0.00534375 2.02039 2.60082e+21 1.72954e-05 3.08546 -3.62631 2.4523 
0.027375 0.00534375 2.01086 2.54575e+21 1.69292e-05 -0.755945 0.700925 -1.57461 
0.024375 0.0216562 2.00149 2.57146e+21 1.71002e-05 -0.464514 -1.38783 -3.60467 
0.025125 0.0216562 1.9876 2.51066e+21 1.66959e-05 0.813713 1.81353 -0.453259 
0.025875 0.0216562 2.0765 2.50708e+21 1.66721e-05 1.3539 -4.70962 0.12317 
0.026625 0.0216562 1.92858 2.3068e+21 1.53402e-05 0.210877 2.72169 2.36121 
0.027375 0.0216562 2.02604 2.81465e+21 1.87174e-05 5.58284 2.56306 0.345077 
0.028125 0.0216562 1.95743 2.66087e+21 1.76948e-05 -1.73136 3.72804 -2.54643 
0.028875 0.0216562 1.91321 2.64656e+21 1.75996e-05 3.39842 -0.774206 1.05802 
0.029625 0.0216562 1.97249 2.65371e+21 1.76472e-05 -1.41229 -0.57355 -0.669383 
0.006375 0.00084375 1.63678 7.40428e+21 4.92385e-05 53.9943 10.3584 -3.59161 
0.007125 0.00084375 1.74219 5.21787e+21 3.46988e-05 50.616 13.3324 -5.04807 
0.006375 0.00103125 1.81824 6.67263e+21 4.4373e-05 47.6304 9.51306 -0.624698 
0.007125 0.00103125 1.84255 5.42151e+21 3.60531e-05 47.6745 15.4726 -0.445688 
0.006375 0.00121875 1.7769 6.46327e+21 4.29807e-05 43.0697 7.1066 0.153316 
0.007125 0.00121875 1.75888 4.80102e+21 3.19268e-05 44.8703 13.6343 -1.94408 
0.006375 0.00140625 1.90184 6.27754e+21 4.17457e-05 38.5023 8.8836 1.77194 
0.007125 0.00140625 1.89252 4.64377e+21 3.08811e-05 41.9753 17.8245 1.92641 
0.007875 0.00121875 1.90138 4.96817e+21 3.30384e-05 29.8344 15.8423 3.21041 
0.008625 0.00121875 2.10969 4.69887e+21 3.12475e-05 11.4007 17.922 -1.55937 
0.007875 0.00140625 1.87846 4.26551e+21 2.83656e-05 20.0783 21.5507 -0.944399 
0.008625 0.00140625 2.02237 4.39428e+21 2.9222e-05 17.8976 16.6747 -5.06293 
0.007875 0.00159375 1.91373 4.15426e+21 2.76258e-05 18.9586 17.071 -2.29204 
0.008625 0.00159375 1.9696 4.52352e+21 3.00814e-05 10.7533 21.0452 -2.53123 
0.007875 0.00178125 1.90784 4.23798e+21 2.81825e-05 15.3971 23.4831 1.00101 
0.008625 0.00178125 1.97983 4.25068e+21 2.8267e-05 10.9078 20.1261 -4.46763 
0.007875 0.00196875 2.00404 3.71939e+21 2.47339e-05 10.0612 24.3354 2.26204 
0.008625 0.00196875 1.97081 4.10455e+21 2.72952e-05 5.97276 22.9518 3.57346 
0.007875 0.00215625 1.95297 4.05731e+21 2.69811e-05 9.29848 19.721 3.46795 
0.006375 0.00234375 1.94396 3.04219e+21 2.02306e-05 -2.33124 -1.3904 -7.44062 
0.007125 0.00234375 1.89405 3.46231e+21 2.30243e-05 6.70981 13.8156 -0.443042 
0.006375 0.00253125 2.11414 3.06835e+21 2.04045e-05 0.609048 -6.39728 -0.804898 
0.007125 0.00253125 1.99677 3.6932e+21 2.45598e-05 2.38585 14.4142 0.32584 
0.007875 0.00234375 1.86409 4.05143e+21 2.6942e-05 5.48431 17.2382 -0.392136 
0.008625 0.00234375 1.90333 3.93554e+21 2.61713e-05 -1.35673 18.6094 4.33188 
0.007875 0.00253125 2.02556 3.62166e+21 2.4084e-05 1.352 20.411 -1.62314 
0.008625 0.00253125 1.96628 4.14926e+21 2.75926e-05 2.0559 15.6003 -3.64504 
0.006375 0.00271875 1.99952 2.80991e+21 1.86859e-05 4.12281 4.97332 -2.54726 
0.007125 0.00271875 1.97848 3.38438e+21 2.25061e-05 -2.90402 10.9564 -1.14237 
0.006375 0.00290625 2.00244 3.03752e+21 2.01995e-05 0.513133 -0.565897 5.31823 
0.007125 0.00290625 1.99604 3.52041e+21 2.34107e-05 -3.53698 7.38705 4.42762 
0.007875 0.00271875 2.0324 3.52591e+21 2.34473e-05 2.02048 14.6416 0.723772 
0.007875 0.00290625 2.01142 3.73849e+21 2.48609e-05 -1.96985 13.5576 1.22934 
0.008625 0.00290625 1.90238 3.67228e+21 2.44207e-05 0.708493 18.8643 3.28167 
0.006375 0.00309375 1.93251 3.4639e+21 2.30349e-05 -3.24598 4.05489 5.0344 
0.007125 0.00309375 1.94346 3.24486e+21 2.15783e-05 2.01228 5.42793 0.121457 
0.006375 0.00328125 1.85817 3.55052e+21 2.3611e-05 -2.5815 1.83677 -1.95017 
0.007125 0.00328125 1.94036 3.48714e+21 2.31895e-05 -0.224516 9.89998 0.384209 
0.007875 0.00309375 2.01882 3.56679e+21 2.37191e-05 -0.957712 15.502 -1.86241 
0.008625 0.00309375 1.96641 3.49362e+21 2.32326e-05 -1.26446 15.9471 1.50551 
0.007875 0.00328125 2.00775 3.4354e+21 2.28454e-05 -0.707011 13.3668 -2.86577 
0.006375 0.00346875 1.9949 3.61554e+21 2.40434e-05 -1.36545 6.48512 0.304903 
0.007125 0.00346875 1.9654 3.38348e+21 2.25001e-05 -0.0116658 12.432 0.327203 
0.006375 0.00365625 2.04612 3.33727e+21 2.21928e-05 -3.86396 2.32039 -0.292527 
0.007125 0.00365625 2.00883 3.51951e+21 2.34047e-05 -0.697079 10.0666 0.436705 
0.006375 0.00421875 1.99805 3.32488e+21 2.21105e-05 1.90608 2.29359 -1.02506 
0.006375 0.00440625 1.95548 3.26527e+21 2.17141e-05 -1.28201 4.26913 -1.40442 
0.006375 0.00459375 2.13726 3.229e+21 2.14729e-05 1.32475 8.44258 -1.60671 
0.006375 0.00478125 2.0116 3.3021e+21 2.1959e-05 0.702069 9.55599 0.268227 
0.006375 0.00496875 1.95398 3.14333e+21 2.09031e-05 0.754512 3.27471 -0.201093 
0.006375 0.00515625 2.00716 3.40354e+21 2.26335e-05 -0.291228 3.27276 -2.06428 
0.006375 0.00534375 1.87064 3.16498e+21 2.10471e-05 -1.87209 3.42413 2.53193 
0.006375 0.00553125 1.86833 3.14593e+21 2.09205e-05 -3.48106 4.29948 4.38985 
0.006375 0.00590625 1.95788 3.21207e+21 2.13602e-05 -0.457771 1.43711 0.726917 
0.006375 0.00665625 2.04908 2.91391e+21 1.93775e-05 1.33684 6.99602 0.901084 
0.006375 0.00684375 2.05399 2.99841e+21 1.99394e-05 0.565151 4.9563 -1.34819 
0.006375 0.00703125 1.9624 3.09652e+21 2.05918e-05 -0.660582 2.78166 1.66143 
0.006375 0.00740625 1.94585 3.10592e+21 2.06543e-05 -7.43159 6.59008 1.62444 
0.006375 0.00815625 2.0034 3.20538e+21 2.13158e-05 -2.46658 5.30047 3.32391 
0.010125 0.00759375 0 0 0 0 0 0 
0.010125 0.00778125 0 0 0 0 0 0 
0.010125 0.00796875 0 0 0 0 0 0 
0.010125 0.00815625 0 0 0 0 0 0 
0.010125 0.00834375 0 0 0 0 0 0 
0.010125 0.00853125 0 0 0 0 0 0 
0.010125 0.00871875 0 0 0 0 0 0 
0.010125 0.00890625 0 0 0 0 0 0 
0.010125 0.00909375 0 0 0 0 0 0 
0.010125 0.00928125 0 0 0 0 0 0 
0.010125 0.00946875 1.99671 2.85219e+21 1.89671e-05 2.55867 0.39859 -0.686106 
0.010875 0.00946875 2.04276 2.90691e+21 1.9331e-05 -0.359989 -0.104524 -3.23463 
0.011625 0.00946875 1.91398 2.76327e+21 1.83758e-05 5.48084 -0.977449 4.41837 
0.014625 0.00515625 2.04124 2.52199e+21 1.67712e-05 0.623909 0.618598 -2.40793 
0.016125 0.00459375 1.98904 2.58444e+21 1.71865e-05 -2.93306 -1.19862 1.46409 
0.016125 0.00478125 1.92049 2.49492e+21 1.65912e-05 -1.04872 -0.736958 -1.26478 
0.015375 0.00553125 1.94706 2.51265e+21 1.67091e-05 3.24794 1.30301 1.82302 
0.012375 0.00646875 2.04415 2.33571e+21 1.55325e-05 5.66368 -2.66783 2.19561 
0.012375 0.00665625 2.16753 2.29542e+21 1.52645e-05 -4.92157 1.10852 -2.63216 
0.012375 0.00759375 1.90048 2.36973e+21 1.57587e-05 -4.50344 0.668881 -5.46622 
0.012375 0.00778125 2.17122 2.70534e+21 1.79905e-05 -4.74474 5.33575 -7.73797 
0.012375 0.00871875 1.80082 2.99858e+21 1.99405e-05 -6.25764 0.0508256 -5.568 
0.012375 0.00890625 1.81985 2.42079e+21 1.60983e-05 -3.29483 3.43393 5.77227 
0.012375 0.00946875 1.96913 2.61143e+21 1.7366e-05 -1.82671 2.08834 2.4539 
0.021375 0.00346875 2.0121 2.5319e+21 1.68371e-05 1.71702 -1.09551 -1.41111 
0.022125 0.00346875 2.02924 2.42096e+21 1.60994e-05 2.633 1.40982 -2.04587 
0.021375 0.00365625 2.03417 2.52588e+21 1.67971e-05 1.171 3.6918 -2.09004 
0.022125 0.00365625 2.01599 2.52278e+21 1.67765e-05 5.65285 0.535606 1.4493 
0.022875 0.00384375 2.022 2.59994e+21 1.72896e-05 5.83447 0.947402 0.211202 
0.022875 0.00403125 1.92438 2.3639e+21 1.572e-05 2.60246 2.14587 0.809074 
0.023625 0.00403125 2.00484 2.68677e+21 1.7867e-05 3.01483 -2.35612 1.4979 
0.021375 0.00421875 2.00803 2.70954e+21 1.80184e-05 3.3401 -2.23208 0.562809 
0.022125 0.00421875 2.00201 2.46541e+21 1.6395e-05 0.284656 1.58202 -2.36199 
0.022125 0.00440625 2.09156 2.44783e+21 1.62781e-05 -0.779672 0.462211 -1.77696 
0.020625 0.00459375 1.95348 2.52777e+21 1.68097e-05 1.26125 -3.4305 -3.82287 
0.019875 0.00478125 2.05196 2.54463e+21 1.69218e-05 3.05257 4.71908 -1.47307 
0.021375 0.00459375 2.03635 2.63371e+21 1.75142e-05 0.67704 2.62688 -1.14184 
0.022125 0.00478125 1.96045 2.62038e+21 1.74255e-05 -0.879928 -3.57834 -3.81915 
0.022125 0.00515625 1.98549 2.57028e+21 1.70924e-05 0.840203 -0.833177 1.33092 
0.022875 0.00496875 1.93554 2.42811e+21 1.61469e-05 2.22096 0.279113 -0.902513 
0.019125 0.00553125 1.98455 2.69271e+21 1.79065e-05 1.14896 -1.6124 -0.555097 
0.022875 0.00553125 2.08074 2.50242e+21 1.66411e-05 2.24041 -2.74052 1.82024 
0.018375 0.0128438 0 0 0 0 0 0 
0.018375 0.0130313 0 0 0 0 0 0 
0.018375 0.0143437 0 0 0 0 0 0 
0.018375 0.0145312 0 0 0 0 0 0 
0.018375 0.0147187 0 0 0 0 0 0 
0.018375 0.0149062 0 0 0 0 0 0 
0.018375 0.0169687 0 0 0 0 0 0 
0.018375 0.0171562 0 0 0 0 0 0 
0.018375 0.0180937 0 0 0 0 0 0 
0.018375 0.0182812 0 0 0 0 0 0 
0.018375 0.0188437 0 0 0 0 0 0 
0.018375 0.0190312 0 0 0 0 0 0 
0.018375 0.0192187 0 0 0 0 0 0 
0.018375 0.0194062 0 0 0 0 0 0 
0.018375 0.0195938 0 0 0 0 0 0 
0.018375 0.0197812 0 0 0 0 0 0 
0.018375 0.0203437 0 0 0 0 0 0 
0.018375 0.0205312 0 0 0 0 0 0 
0.019875 0.0216562 2.05321 2.57503e+21 1.7124e-05 -1.75505 -1.02927 3.48696 
0.021375 0.0216562 1.93415 2.53212e+21 1.68386e-05 1.22909 2.20793 1.03294 
0.022125 0.0216562 2.08508 2.42125e+21 1.61013e-05 -2.54619 -2.37919 -4.3055 
0.022875 0.0216562 2.00795 2.62153e+21 1.74331e-05 2.91404 -0.12108 -0.235499 
0.023625 0.0216562 1.94231 2.39263e+21 1.5911e-05 -0.890764 1.17676 3.64591 
0.02475 0.0009375 1.99777 2.67097e+21 1.7762e-05 1.17535 -1.43042 1.08513 
0.01275 0.0009375 2.10719 2.64268e+21 1.75738e-05 3.83483 -2.23815 2.20615 
0.01425 0.0009375 2.01757 2.51705e+21 1.67384e-05 4.29726 0.561071 -1.20261 
0.01275 0.0013125 1.94741 2.50606e+21 1.66653e-05 -1.11073 -4.92289 1.78239 
0.01875 0.0009375 2.00677 2.54723e+21 1.69391e-05 0.534064 -0.894114 1.93732 
0.02025 0.0009375 1.96818 2.41746e+21 1.60761e-05 3.52773 2.24907 0.54989 
0.02175 0.0009375 1.9132 2.57741e+21 1.71398e-05 -0.305447 1.17973 0.74883 
0.02325 0.0009375 2.03815 2.53214e+21 1.68388e-05 -0.34866 -0.147105 4.07187 
0.028875 0.00271875 1.97701 2.57263e+21 1.7108e-05 6.11764 -0.708868 -1.23088 
0.029625 0.00271875 2.09238 2.5643e+21 1.70526e-05 2.3297 -2.8796 -1.66626 
0.028875 0.00290625 2.06273 2.54295e+21 1.69106e-05 5.44268 -0.0304833 -2.05756 
0.029625 0.00290625 2.01488 2.6442e+21 1.75839e-05 0.404107 1.11627 -1.74261 
0.027375 0.00346875 1.98685 2.66893e+21 1.77484e-05 1.62858 -2.29216 2.88055 
0.028125 0.00346875 2.00476 2.57431e+21 1.71192e-05 2.39947 1.22042 -0.943499 
0.027375 0.00365625 1.94626 2.47016e+21 1.64265e-05 3.83187 2.44509 -0.354736 
0.028125 0.00365625 1.99812 2.47635e+21 1.64677e-05 2.48337 -1.47033 2.85023 
0.026625 0.00384375 1.92421 2.39972e+21 1.59581e-05 6.34018 -2.57105 5.4022 
0.025875 0.00403125 1.94151 2.4762e+21 1.64668e-05 3.89964 0.150557 1.05575 
0.026625 0.00403125 1.97259 2.47059e+21 1.64294e-05 3.32598 -4.2157 2.30995 
0.027375 0.00403125 1.97389 2.55481e+21 1.69895e-05 2.73111 2.48018 -0.066015 
0.028875 0.00384375 2.03295 2.57638e+21 1.7133e-05 0.948656 0.228466 -0.82111 
0.029625 0.00384375 1.97424 2.45566e+21 1.63301e-05 2.65862 1.50017 0.458018 
0.028875 0.00403125 1.98568 2.48182e+21 1.65041e-05 -0.54288 1.37282 -0.34484 
0.029625 0.00403125 1.92142 2.5127e+21 1.67095e-05 6.15141 4.53281 0.255517 
0.028125 0.00421875 1.94487 2.68808e+21 1.78757e-05 -0.182296 -1.86644 1.71906 
0.028125 0.00440625 1.96252 2.6379e+21 1.75421e-05 2.31563 0.110245 1.26938 
0.028875 0.00421875 1.99474 2.4359e+21 1.61987e-05 1.04878 -2.38989 -0.225111 
0.028875 0.00440625 1.9679 2.51718e+21 1.67393e-05 2.89126 2.66531 1.27163 
0.029625 0.00440625 1.98668 2.62763e+21 1.74737e-05 -1.26567 0.348253 0.183667 
0.024375 0.00496875 1.96839 2.60805e+21 1.73435e-05 3.32859 0.34976 -1.71989 
0.006375 0.00159375 1.92502 5.32728e+21 3.54264e-05 20.8745 15.1859 -3.98944 
0.007125 0.00159375 1.8516 4.26078e+21 2.83342e-05 31.768 21.514 -1.89762 
0.006375 0.00178125 2.08112 3.37148e+21 2.24203e-05 6.19114 19.3714 -1.6255 
0.007125 0.00178125 1.95605 3.8631e+21 2.56896e-05 17.7388 19.4396 -2.33174 
0.009375 0.00309375 1.8476 3.57196e+21 2.37535e-05 3.53529 10.1154 -1.1724 
0.010125 0.00309375 0 0 0 0 0 0 
0.009375 0.00328125 2.05433 3.75833e+21 2.49929e-05 -1.70577 9.9465 -2.27833 
0.010125 0.00328125 0 0 0 0 0 0 
0.006375 0.00384375 1.97931 3.32906e+21 2.21382e-05 -5.27217 3.05603 -1.96085 
0.007125 0.00384375 1.95527 3.40377e+21 2.26351e-05 -1.97509 4.18627 -0.357564 
0.006375 0.00403125 1.94145 3.52691e+21 2.34539e-05 -5.31562 2.4443 -0.638893 
0.010125 0.00534375 0 0 0 0 0 0 
0.010125 0.00553125 0 0 0 0 0 0 
0.010125 0.00609375 0 0 0 0 0 0 
0.010125 0.00628125 0 0 0 0 0 0 
0.010125 0.00646875 0 0 0 0 0 0 
0.010125 0.00665625 0 0 0 0 0 0 
0.015375 0.00271875 1.97285 2.37697e+21 1.58069e-05 0.0166233 2.41034 1.45036 
0.016125 0.00271875 2.11088 2.4186e+21 1.60837e-05 -1.64377 -1.73572 -3.57252 
0.015375 0.00290625 1.96847 2.38329e+21 1.58488e-05 2.28341 -2.84675 -0.543 
0.016125 0.00290625 2.09838 2.39497e+21 1.59265e-05 2.5114 3.42204 -0.871848 
0.013875 0.00346875 2.07199 2.71788e+21 1.80739e-05 -2.95665 1.43326 -1.08576 
0.014625 0.00346875 1.91472 2.47643e+21 1.64683e-05 -1.34876 2.18224 1.39626 
0.013875 0.00365625 1.95517 2.51968e+21 1.67559e-05 -3.70974 -2.84753 1.21891 
0.014625 0.00365625 2.00508 2.61874e+21 1.74146e-05 -1.40761 -1.89411 -0.199201 
0.016875 0.00309375 2.14981 2.58272e+21 1.71751e-05 2.76216 1.04681 0.187512 
0.017625 0.00309375 2.04457 2.50224e+21 1.66399e-05 2.62454 0.767797 -3.33276 
0.016875 0.00328125 2.02735 2.52481e+21 1.679e-05 3.08345 0.861499 3.44329 
0.017625 0.00328125 2.13355 2.71107e+21 1.80286e-05 5.11709 -0.183089 3.03886 
0.016875 0.00346875 1.98901 2.54169e+21 1.69022e-05 2.09143 0.170936 -5.25611 
0.017625 0.00346875 1.92836 2.558e+21 1.70107e-05 -0.33877 3.39845 1.45632 
0.016875 0.00365625 2.05461 2.53516e+21 1.68588e-05 -0.311956 0.92772 -3.53881 
0.017625 0.00365625 2.12587 2.57231e+21 1.71058e-05 1.5835 -1.83762 -4.45898 
0.013875 0.00384375 1.98621 2.49394e+21 1.65847e-05 -0.0669061 1.0982 -3.31836 
0.014625 0.00384375 1.96895 2.56461e+21 1.70546e-05 -0.596159 1.51687 -0.636488 
0.013875 0.00403125 1.97231 2.41163e+21 1.60374e-05 1.35818 2.37531 -0.843034 
0.016875 0.00384375 2.00568 2.74127e+21 1.82295e-05 0.173949 -0.66796 1.39406 
0.017625 0.00384375 1.90992 2.41149e+21 1.60364e-05 0.0101397 -3.85892 -0.290862 
0.016875 0.00403125 2.03774 2.58008e+21 1.71575e-05 0.0467587 0.364331 0.68735 
0.017625 0.00403125 1.95809 2.45094e+21 1.62987e-05 -0.958888 -2.16164 0.767322 
0.015375 0.00421875 2.02217 2.59686e+21 1.72691e-05 3.52308 -2.79347 0.105629 
0.014625 0.00478125 2.0067 2.39077e+21 1.58986e-05 -1.23164 -0.636533 0.776117 
0.017625 0.00459375 1.93665 2.5056e+21 1.66622e-05 -1.71563 -0.642946 2.52001 
0.016125 0.00496875 2.08244 2.55111e+21 1.69649e-05 -2.50015 -2.17625 -1.58286 
0.016125 0.00515625 2.06081 2.64271e+21 1.7574e-05 0.28361 -1.76629 2.644 
0.017625 0.00515625 1.94433 2.44956e+21 1.62896e-05 -2.28581 2.64247 -0.927984 
0.016875 0.00590625 1.96013 2.54091e+21 1.68971e-05 2.60452 -1.01215 -4.21127 
0.012375 0.00609375 2.13403 2.81375e+21 1.87114e-05 -3.89978 -0.445753 -6.55094 
0.012375 0.00628125 1.91139 2.64868e+21 1.76137e-05 -7.30453 -4.59613 0.394075 
0.012375 0.00721875 1.8151 2.5869e+21 1.72029e-05 -1.82095 -2.35297 2.80737 
0.012375 0.00740625 1.84525 2.36096e+21 1.57004e-05 -11.9132 7.24129 3.42182 
0.012375 0.00796875 2.01799 2.27951e+21 1.51588e-05 -11.6116 -0.874461 2.61565 
0.012375 0.00815625 1.84118 2.28955e+21 1.52255e-05 6.16842 4.5879 1.90094 
0.012375 0.00909375 1.9708 2.63224e+21 1.75044e-05 2.6969 -4.85964 -12.5049 
0.012375 0.00928125 1.90151 2.23153e+21 1.48397e-05 -7.9235 4.95456 -8.22274 
0.022875 0.00346875 1.91157 2.50906e+21 1.66852e-05 7.00979 -0.480029 -0.254491 
0.022875 0.00365625 1.89972 2.47944e+21 1.64883e-05 6.56955 3.2263 0.931965 
0.023625 0.00365625 2.00012 2.48873e+21 1.65501e-05 -2.17628 0.00344392 2.61081 
0.019875 0.00384375 2.08573 2.60877e+21 1.73483e-05 -1.45901 -0.21936 -2.13615 
0.020625 0.00384375 2.00503 2.75011e+21 1.82882e-05 3.44447 0.74772 0.738581 
0.019875 0.00403125 1.93452 2.625e+21 1.74563e-05 3.49765 -2.91947 -0.510256 
0.020625 0.00403125 1.97572 2.53797e+21 1.68775e-05 1.4504 -4.16734 -0.0507019 
0.019125 0.00440625 2.03725 2.45554e+21 1.63293e-05 5.18797 -4.12158 -1.22708 
0.019875 0.00421875 1.95428 2.43858e+21 1.62166e-05 0.0758884 -0.104413 -2.32759 
0.020625 0.00421875 1.98976 2.52175e+21 1.67696e-05 -0.113697 0.780301 1.04681 
0.020625 0.00440625 2.05284 2.65845e+21 1.76787e-05 1.00606 -1.43779 -0.358057 
0.021375 0.00384375 1.98204 2.50277e+21 1.66434e-05 4.32443 -2.03543 0.628447 
0.022125 0.00384375 2.07107 2.47038e+21 1.64281e-05 0.390584 0.279025 0.17549 
0.021375 0.00403125 1.97425 2.44532e+21 1.62614e-05 2.25446 2.36056 0.0503342 
0.022125 0.00403125 1.94713 2.50428e+21 1.66535e-05 2.69758 -0.387638 2.82285 
0.022875 0.00421875 1.97827 2.55662e+21 1.70015e-05 1.06061 1.86964 -2.64893 
0.023625 0.00421875 1.99458 2.48687e+21 1.65377e-05 1.00559 0.571923 0.938516 
0.022875 0.00440625 1.8678 2.56342e+21 1.70467e-05 2.2182 -1.29568 3.75956 
0.023625 0.00459375 2.05244 2.50806e+21 1.66786e-05 3.01155 0.382095 -0.439821 
0.023625 0.00478125 2.05605 2.48782e+21 1.6544e-05 1.80703 -1.62146 -0.721748 
0.018375 0.0135938 0 0 0 0 0 0 
0.018375 0.0137813 0 0 0 0 0 0 
0.018375 0.0139688 0 0 0 0 0 0 
0.018375 0.0141563 0 0 0 0 0 0 
0.018375 0.0150937 0 0 0 0 0 0 
0.018375 0.0152812 0 0 0 0 0 0 
0.018375 0.0154687 0 0 0 0 0 0 
0.018375 0.0156563 0 0 0 0 0 0 
0.018375 0.0158438 0 0 0 0 0 0 
0.018375 0.0160313 0 0 0 0 0 0 
0.018375 0.0162188 0 0 0 0 0 0 
0.018375 0.0164062 0 0 0 0 0 0 
0.018375 0.0165937 0 0 0 0 0 0 
0.018375 0.0167812 0 0 0 0 0 0 
0.018375 0.0173437 0 0 0 0 0 0 
0.018375 0.0175312 0 0 0 0 0 0 
0.018375 0.0177187 0 0 0 0 0 0 
0.018375 0.0179062 0 0 0 0 0 0 
0.018375 0.0184687 0 0 0 0 0 0 
0.018375 0.0186562 0 0 0 0 0 0 
0.018375 0.0199687 0 0 0 0 0 0 
0.018375 0.0201562 0 0 0 0 0 0 
0.018375 0.0207187 0 0 0 0 0 0 
0.018375 0.0209062 0 0 0 0 0 0 
0.018375 0.0210937 0 0 0 0 0 0 
0.018375 0.0212812 0 0 0 0 0 0 
0.018375 0.0214687 0 0 0 0 0 0 
0.018375 0.0216562 0 0 0 0 0 0 
0.019125 0.0216562 2.06577 2.37237e+21 1.57762e-05 5.60261 0.781547 0.750106 
0.009375 0.00384375 1.98251 3.53333e+21 2.34966e-05 4.44688 11.299 -1.87702 
0.010125 0.00384375 0 0 0 0 0 0 
0.009375 0.00403125 1.94645 3.42858e+21 2.28e-05 0.843689 13.004 1.36726 
0.010125 0.00403125 0 0 0 0 0 0 
0.010125 0.00684375 0 0 0 0 0 0 
0.010125 0.00703125 0 0 0 0 0 0 
0.0039375 0.000984375 1.85618 1.21872e+22 8.10447e-05 27.9931 -6.47398 -5.63025 
0.0043125 0.000984375 1.90595 1.14513e+22 7.61514e-05 38.2228 7.70699 1.59881 
0.0039375 0.00107813 1.84991 1.15893e+22 7.70689e-05 28.4739 -3.71947 1.19909 
0.0043125 0.00107813 1.7175 1.12954e+22 7.51143e-05 30.3681 5.1899 2.08615 
0.0039375 0.00135937 1.9192 1.24552e+22 8.28269e-05 21.7401 -1.51473 6.81957 
0.0043125 0.00135937 1.86328 1.27549e+22 8.48201e-05 16.4199 0.00758102 0.790646 
0.0039375 0.00145312 1.93545 1.30224e+22 8.65989e-05 19.3748 -4.53174 1.18416 
0.0043125 0.00145312 2.07684 1.05612e+22 7.02321e-05 17.6166 5.12026 3.58208 
0.0241875 0.00810938 2.00133 2.56238e+21 1.70398e-05 -2.74772 3.53265 0.39672 
0.0245625 0.00810938 1.85299 2.47306e+21 1.64458e-05 5.62745 0.113986 1.38864 
0.0241875 0.00820313 2.02113 2.6821e+21 1.78359e-05 -2.18341 1.59993 -4.48628 
0.0245625 0.00820313 2.02967 2.38409e+21 1.58542e-05 0.000564567 -0.192116 4.87946 
0.0264375 0.00923437 2.01468 2.59338e+21 1.7246e-05 0.153196 1.45365 -0.159379 
0.0268125 0.00923437 2.0006 2.39238e+21 1.59093e-05 6.42721 -0.944605 -1.10356 
0.0264375 0.00932812 1.90018 2.6304e+21 1.74922e-05 4.4905 -3.31969 -7.12266 
0.0268125 0.00932812 2.03157 2.65952e+21 1.76858e-05 4.65589 -0.0978119 5.01114 
0.0279375 0.00998437 1.99396 2.32149e+21 1.54379e-05 2.52492 -1.98805 1.13597 
0.0283125 0.00998437 2.02963 2.41671e+21 1.60711e-05 6.28808 3.95752 -1.07702 
0.0279375 0.0100781 2.03737 2.28193e+21 1.51748e-05 -1.08733 2.93592 2.55196 
0.0283125 0.0100781 1.99147 2.44813e+21 1.62801e-05 5.01975 -0.305362 1.76968 
0.0249375 0.0105469 1.80592 2.43805e+21 1.6213e-05 3.09056 -1.09282 0.827378 
0.0253125 0.0105469 1.88418 2.52389e+21 1.67839e-05 1.69153 -0.16613 -0.419614 
0.0249375 0.0106406 1.93 2.36977e+21 1.5759e-05 0.654802 -1.02287 -0.312628 
0.0253125 0.0106406 1.99889 2.5442e+21 1.69189e-05 -1.05681 -2.30052 0.0972856 
0.0264375 0.0109219 2.02994 2.56988e+21 1.70897e-05 0.816925 0.200997 -1.33026 
0.0268125 0.0109219 2.01122 2.4704e+21 1.64281e-05 3.17331 3.0693 -0.482168 
0.0264375 0.0110156 2.02536 2.58088e+21 1.71629e-05 3.73566 0.0825429 3.05901 
0.0268125 0.0110156 1.99451 2.64253e+21 1.75728e-05 -1.10952 1.96977 2.60297 
0.0249375 0.0116719 1.94836 2.61031e+21 1.73586e-05 -0.0575633 2.33914 2.04415 
0.0253125 0.0116719 2.06113 2.42801e+21 1.61463e-05 2.62296 1.39134 -1.03231 
0.0249375 0.0117656 1.97248 2.55873e+21 1.70155e-05 2.42492 0.945317 -1.92116 
0.0253125 0.0117656 2.0137 2.6857e+21 1.78599e-05 1.11731 -3.21409 -2.04084 
0.0275625 0.0114844 1.9485 2.45977e+21 1.63575e-05 2.11215 -3.11634 1.15176 
0.0271875 0.0115781 2.01594 2.56107e+21 1.70311e-05 5.936 -1.80264 0.372682 
0.0275625 0.0115781 1.95399 2.63927e+21 1.75511e-05 3.89071 -1.20322 0.902803 
0.0279375 0.0114844 1.96185 2.52678e+21 1.68031e-05 -1.43007 0.590663 1.46357 
0.0283125 0.0114844 1.84692 2.50708e+21 1.6672e-05 -0.790375 4.57138 -3.006 
0.0279375 0.0115781 1.94287 2.74875e+21 1.82792e-05 3.09351 0.5173 0.800281 
0.0283125 0.0115781 2.09298 2.41248e+21 1.6043e-05 6.72585 -1.30642 1.77001 
0.0286875 0.0114844 1.93922 2.53073e+21 1.68293e-05 1.78791 -0.589964 1.02901 
0.0290625 0.0114844 1.98859 2.52678e+21 1.68031e-05 -0.360343 -2.15996 -3.20404 
0.0286875 0.0115781 1.9509 2.48677e+21 1.65371e-05 -1.81525 -0.274791 -1.09712 
0.0290625 0.0115781 1.96011 2.55716e+21 1.70051e-05 0.828159 1.97776 2.51087 
0.0286875 0.0118594 1.89407 2.5385e+21 1.6881e-05 -4.01805 -0.674258 -2.92961 
0.0290625 0.0118594 2.05534 2.60721e+21 1.7338e-05 -3.91104 -2.55323 0.995469 
0.0286875 0.0119531 2.01242 2.57161e+21 1.71012e-05 2.96261 -5.34348 1.50613 
0.0290625 0.0119531 2.04961 2.48829e+21 1.65471e-05 0.763265 1.92223 2.97664 
0.0249375 0.0120469 1.9149 2.57415e+21 1.71181e-05 -0.657827 -1.59105 -1.20114 
0.0253125 0.0120469 1.9747 2.47269e+21 1.64434e-05 3.84248 1.21161 -1.98673 
0.0249375 0.0121406 1.91688 2.62139e+21 1.74323e-05 0.794974 2.1161 -1.03256 
0.0253125 0.0121406 1.92765 2.56546e+21 1.70603e-05 -0.954555 1.8322 0.201213 
0.0271875 0.0120469 2.01508 2.56288e+21 1.70431e-05 4.0979 1.42753 1.96314 
0.0275625 0.0120469 2.02694 2.78835e+21 1.85425e-05 -1.06409 1.41066 1.88542 
0.0271875 0.0121406 1.95302 2.59156e+21 1.72339e-05 -2.14451 -4.18341 -0.252055 
0.0275625 0.0121406 2.06025 2.37156e+21 1.57709e-05 1.40476 9.22935 1.11372 
0.0279375 0.0120469 2.18025 2.50651e+21 1.66683e-05 3.23712 2.15246 2.13669 
0.0283125 0.0120469 2.09919 2.40129e+21 1.59686e-05 4.89072 -3.66562 0.234413 
0.0279375 0.0121406 2.01411 2.40139e+21 1.59692e-05 1.49255 1.15765 0.0182395 
0.0283125 0.0121406 1.97568 2.6736e+21 1.77794e-05 0.639434 0.689323 -3.61867 
0.0286875 0.0126094 2.0169 2.44496e+21 1.6259e-05 -0.848319 -1.39087 -0.958132 
0.0290625 0.0126094 1.92756 2.59216e+21 1.72378e-05 1.56277 -2.62515 0.30958 
0.0286875 0.0127031 1.95907 2.49819e+21 1.66129e-05 2.28487 3.77915 -1.0387 
0.0290625 0.0127031 2.01263 2.50532e+21 1.66603e-05 3.42211 3.89422 1.19113 
0.0264375 0.0131719 1.8365 2.43334e+21 1.61817e-05 1.14289 0.916195 -0.882907 
0.0268125 0.0131719 2.09962 2.62237e+21 1.74388e-05 1.88878 -0.56879 1.731 
0.0264375 0.0132656 1.9391 2.37178e+21 1.57723e-05 -0.212537 0.00532174 -0.610337 
0.0268125 0.0132656 2.0594 2.53559e+21 1.68617e-05 -1.27417 2.82663 -2.36183 
0.0256875 0.0133594 1.96495 2.66351e+21 1.77123e-05 0.222977 -1.35747 -1.58874 
0.0260625 0.0133594 2.09534 2.48391e+21 1.6518e-05 0.953539 -0.906383 0.291555 
0.0256875 0.0134531 1.93429 2.51371e+21 1.67162e-05 2.89084 0.925084 -1.4864 
0.0260625 0.0134531 2.01008 2.65168e+21 1.76337e-05 2.96617 -0.813622 -1.27668 
0.0271875 0.0129844 1.92967 2.50683e+21 1.66704e-05 3.39898 -3.07298 0.912717 
0.0275625 0.0129844 2.10056 2.56959e+21 1.70878e-05 1.73593 -2.87978 -1.19163 
0.0271875 0.0130781 1.96496 2.4404e+21 1.62287e-05 3.86378 0.073201 -2.35444 
0.0275625 0.0130781 1.96253 2.55117e+21 1.69653e-05 -1.27048 1.6128 -1.1955 
0.0294375 0.0127969 2.03992 2.46574e+21 1.63971e-05 -0.032532 1.1811 0.783431 