ITEM: TIMESTEP
500000
ITEM: NUMBER OF CELLS
23528
ITEM: BOX BOUNDS oo ao pp
0 0.12
0 0.03
-0.1 0.1
ITEM: CELLS xc yc f_out[1] f_out[2] f_out[3] f_out[4] f_out[5] f_out[6] 
0.003 0.00375 0 0 0 0 0 0 
0.003 0.00525 0 0 0 0 0 0 
0.003 0.00675 0 0 0 0 0 0 
0.003 0.00825 0 0 0 0 0 0 
0.003 0.00975 0 0 0 0 0 0 
0.003 0.01125 0 0 0 0 0 0 
0.003 0.01275 0 0 0 0 0 0 
0.003 0.01425 0 0 0 0 0 0 
0.003 0.01575 0 0 0 0 0 0 
0.003 0.01725 0 0 0 0 0 0 
0.003 0.01875 0 0 0 0 0 0 
0.003 0.02025 0 0 0 0 0 0 
0.003 0.02175 0 0 0 0 0 0 
0.003 0.02325 0 0 0 0 0 0 
0.027 0.02325 0 0 0 0 0 0 
0.003 0.02475 0 0 0 0 0 0 
0.027 0.02475 0 0 0 0 0 0 
0.003 0.02625 0 0 0 0 0 0 
0.027 0.02625 0 0 0 0 0 0 
0.003 0.02775 0 0 0 0 0 0 
0.027 0.02775 0 0 0 0 0 0 
0.003 0.02925 0 0 0 0 0 0 
0.027 0.02925 0 0 0 0 0 0 
0.009 0.01425 0 0 0 0 0 0 
0.009 0.01575 0 0 0 0 0 0 
0.009 0.01725 0 0 0 0 0 0 
0.009 0.01875 0 0 0 0 0 0 
0.009 0.02025 0 0 0 0 0 0 
0.009 0.02175 0 0 0 0 0 0 
0.009 0.02325 0 0 0 0 0 0 
0.009 0.02475 0 0 0 0 0 0 
0.009 0.02625 0 0 0 0 0 0 
0.009 0.02775 0 0 0 0 0 0 
0.009 0.02925 0 0 0 0 0 0 
0.015 0.01425 0 0 0 0 0 0 
0.015 0.01575 0 0 0 0 0 0 
0.015 0.01725 0 0 0 0 0 0 
0.015 0.01875 0 0 0 0 0 0 
0.015 0.02025 0 0 0 0 0 0 
0.015 0.02175 0 0 0 0 0 0 
0.015 0.02325 0 0 0 0 0 0 
0.015 0.02475 0 0 0 0 0 0 
0.015 0.02625 0 0 0 0 0 0 
0.015 0.02775 0 0 0 0 0 0 
0.015 0.02925 0 0 0 0 0 0 
0.021 0.02325 0 0 0 0 0 0 
0.021 0.02475 0 0 0 0 0 0 
0.021 0.02625 0 0 0 0 0 0 
0.021 0.02775 0 0 0 0 0 0 
0.021 0.02925 0 0 0 0 0 0 
0.0015 0.000375 0 0 0 0 0 0 
0.0015 0.001125 0 0 0 0 0 0 
0.0015 0.001875 0 0 0 0 0 0 
0.0015 0.002625 0 0 0 0 0 0 
0.0045 0.002625 0 0 0 0 0 0 
0.0255 0.022125 0 0 0 0 0 0 
0.0285 0.022125 0 0 0 0 0 0 
0.0105 0.000375 1.97675 2.77604e+21 1.84606e-05 -0.870157 1.1702 -2.96122 
0.0105 0.001125 2.01263 2.98958e+21 1.98807e-05 4.87239 8.08759 -1.06479 
0.0075 0.013125 0 0 0 0 0 0 
0.0105 0.013125 0 0 0 0 0 0 
0.0135 0.013125 0 0 0 0 0 0 
0.0165 0.013125 0 0 0 0 0 0 
0.0195 0.022125 0 0 0 0 0 0 
0.0225 0.022125 0 0 0 0 0 0 
0.00375 0.0001875 2.01191 7.61372e+21 5.06312e-05 23.755 0.817846 -1.15592 
0.00525 0.0001875 1.919 5.62866e+21 3.74306e-05 44.7012 -1.03224 2.60644 
0.00525 0.0016875 1.93673 5.38719e+21 3.58248e-05 14.6765 -0.344949 -2.89831 
0.00375 0.0020625 0 0 0 0 0 0 
0.00525 0.0020625 0 0 0 0 0 0 
0.00675 0.0001875 1.91552 3.7122e+21 2.46861e-05 45.4368 0.225614 4.98747 
0.00825 0.0001875 1.97603 2.77661e+21 1.84644e-05 22.1626 8.67838 2.43111 
0.00675 0.0005625 1.82547 3.56633e+21 2.37161e-05 45.1847 4.43535 -2.78932 
0.00825 0.0005625 1.93594 2.8923e+21 1.92338e-05 22.155 5.81086 4.39803 
0.00825 0.0009375 2.06986 2.78868e+21 1.85447e-05 16.1347 12.1355 -3.39942 
0.01125 0.0076875 0 0 0 0 0 0 
0.01125 0.0080625 0 0 0 0 0 0 
0.01125 0.0091875 0 0 0 0 0 0 
0.0255 0.000375 1.93767 1.62409e+21 1.08002e-05 0.620753 3.99277 3.41425 
0.0285 0.000375 1.91381 1.63541e+21 1.08754e-05 -0.112804 -0.264818 -3.58166 
0.01125 0.0046875 0 0 0 0 0 0 
0.01125 0.0050625 0 0 0 0 0 0 
0.01125 0.0061875 0 0 0 0 0 0 
0.01125 0.0065625 0 0 0 0 0 0 
0.01125 0.0084375 0 0 0 0 0 0 
0.01125 0.0088125 0 0 0 0 0 0 
0.01275 0.0031875 2.00333 1.51957e+21 1.01051e-05 1.69389 -0.604203 0.51774 
0.01275 0.0039375 1.98573 1.48208e+21 9.85582e-06 -3.31018 0.484942 -0.961559 
0.003375 0.00084375 1.97652 7.5716e+21 5.03511e-05 23.9311 -1.32718 3.0003 
0.004125 0.00084375 1.86862 7.60548e+21 5.05765e-05 31.0157 -2.06009 1.00994 
0.003375 0.00103125 1.82121 7.36462e+21 4.89747e-05 22.6683 -2.98777 1.09536 
0.004125 0.00103125 1.97775 6.8153e+21 4.53218e-05 22.2451 -1.07513 1.23558 
0.004875 0.00084375 1.96007 6.12999e+21 4.07645e-05 37.8121 -2.55281 -5.42564 
0.005625 0.00084375 1.86931 4.84229e+21 3.22012e-05 34.6366 -1.7736 -2.61672 
0.004875 0.00103125 1.92087 6.18974e+21 4.11618e-05 27.3975 -0.251594 -3.89067 
0.005625 0.00103125 1.86006 5.22397e+21 3.47394e-05 35.5024 3.33675 1.50573 
0.003375 0.00121875 1.98414 8.38211e+21 5.5741e-05 19.0304 0.50211 -4.2218 
0.004125 0.00121875 1.97567 6.48184e+21 4.31042e-05 17.7707 -0.623039 1.04512 
0.003375 0.00140625 2.00455 8.05872e+21 5.35905e-05 16.0963 -2.49034 -3.0866 
0.004875 0.00121875 1.99397 6.09182e+21 4.05106e-05 24.0571 4.15819 1.02851 
0.005625 0.00121875 1.90304 5.30248e+21 3.52615e-05 31.1761 -1.12926 -0.95108 
0.004875 0.00140625 1.98054 5.89123e+21 3.91767e-05 18.5061 0.113788 0.444758 
0.005625 0.00140625 2.01542 5.29567e+21 3.52162e-05 20.6672 -6.95267 -1.2364 
0.025875 0.00853125 1.97501 1.46193e+21 9.72183e-06 0.447389 0.913867 2.11021 
0.026625 0.00890625 1.93309 1.57193e+21 1.04533e-05 0.239124 1.12076 -0.285726 
0.024375 0.0216562 1.85061 1.58794e+21 1.05598e-05 4.65707 -4.63479 1.40755 
0.025125 0.0216562 1.97111 1.46276e+21 9.72736e-06 0.347453 -3.31445 -0.631157 
0.025875 0.0216562 1.93452 1.59151e+21 1.05836e-05 0.214198 -0.649318 3.91072 
0.026625 0.0216562 1.85436 1.65589e+21 1.10117e-05 -0.989653 -1.57737 -3.12007 
0.007875 0.00384375 2.03276 1.99044e+21 1.32364e-05 -1.49444 10.0029 1.07459 
0.008625 0.00384375 1.96607 2.11411e+21 1.40588e-05 0.780687 15.3753 0.252021 
0.007875 0.00403125 1.90732 2.10842e+21 1.4021e-05 -3.84426 9.25603 -2.32554 
0.008625 0.00403125 1.95177 2.08316e+21 1.3853e-05 -2.14679 7.82019 0.289759 
0.008625 0.00534375 1.94464 1.92732e+21 1.28166e-05 -1.71644 8.52084 -3.78765 
0.007875 0.00553125 1.98298 2.1423e+21 1.42463e-05 -1.63412 5.90127 0.0618956 
0.006375 0.00571875 1.91467 1.94442e+21 1.29304e-05 -0.512317 2.99904 1.99247 
0.006375 0.00590625 2.03112 1.95455e+21 1.29977e-05 -1.24218 7.8017 -0.889792 
0.006375 0.00609375 2.07826 1.9745e+21 1.31304e-05 -1.44056 2.96251 -2.5976 
0.007125 0.00609375 2.01914 1.93898e+21 1.28942e-05 -1.43489 7.1257 0.406148 
0.006375 0.00628125 2.05292 1.91894e+21 1.27609e-05 3.08313 6.98573 1.59293 
0.007125 0.00628125 1.94389 1.92795e+21 1.28209e-05 1.69572 4.07927 -1.62228 
0.007875 0.00609375 1.98273 1.94641e+21 1.29436e-05 -1.39242 4.9522 2.71236 
0.006375 0.00684375 2.01556 1.97207e+21 1.31143e-05 -0.138643 3.39973 -0.933095 
0.007125 0.00684375 2.06781 1.91171e+21 1.27129e-05 -0.815956 6.91287 2.24472 
0.006375 0.00703125 1.97367 2.007e+21 1.33466e-05 2.66106 0.719996 2.2766 
0.006375 0.00759375 2.05675 1.99527e+21 1.32685e-05 -2.11344 2.12364 2.80794 
0.006375 0.00778125 2.02144 1.78901e+21 1.18969e-05 0.662098 2.66412 -3.32218 
0.008625 0.00759375 1.98019 1.94795e+21 1.29538e-05 -4.23978 3.25237 -1.40737 
0.006375 0.00796875 2.13807 1.79751e+21 1.19535e-05 0.747573 -0.700413 -2.2154 
0.006375 0.00815625 1.94086 1.89929e+21 1.26303e-05 -2.43623 6.37345 3.66265 
0.006375 0.00834375 1.95924 1.88459e+21 1.25325e-05 2.02227 2.3714 0.337293 
0.006375 0.00853125 2.00231 1.68397e+21 1.11984e-05 -0.887819 7.85694 3.11971 
0.006375 0.00871875 1.99621 1.85951e+21 1.23657e-05 -0.812407 2.54401 1.50863 
0.006375 0.00890625 1.94872 1.90852e+21 1.26917e-05 6.85242 6.30122 -1.40859 
0.006375 0.00965625 2.06249 1.835e+21 1.22028e-05 2.45726 1.0971 -0.801712 
0.010125 0.00946875 2.06457 1.83306e+21 1.21899e-05 -2.34893 1.71875 -3.42724 
0.006375 0.00984375 1.88241 1.79358e+21 1.19273e-05 -2.20626 4.92456 -1.54512 
0.006375 0.0100312 1.89896 1.72198e+21 1.14512e-05 3.63239 2.22887 -1.34326 
0.006375 0.0102187 1.9282 1.84613e+21 1.22768e-05 -2.4972 -0.850228 0.683713 
0.006375 0.0104062 1.91232 1.80063e+21 1.19742e-05 -2.67019 -1.9166 1.44455 
0.006375 0.0105937 1.9929 1.79681e+21 1.19488e-05 0.247106 -0.437117 3.27672 
0.006375 0.0107812 1.93258 1.69864e+21 1.12959e-05 -1.00185 -0.357953 0.363694 
0.006375 0.0109687 1.95039 1.78955e+21 1.19005e-05 3.52623 -1.52698 -1.72488 
0.006375 0.0111562 2.0139 1.73094e+21 1.15108e-05 -1.41597 5.18506 -1.82006 
0.006375 0.0113437 1.9975 1.70046e+21 1.13081e-05 2.73015 1.85261 0.225422 
0.006375 0.0115312 1.95289 1.69489e+21 1.1271e-05 -1.09138 0.994757 -1.1487 
0.006375 0.0119063 1.98639 1.74488e+21 1.16035e-05 -0.986999 -1.53897 2.94163 
0.006375 0.0120938 2.05379 1.75293e+21 1.1657e-05 -2.87119 0.235588 1.39695 
0.006375 0.0124688 1.96003 1.74616e+21 1.16119e-05 -1.95078 -1.34511 3.70334 
0.006375 0.0126563 2.03778 1.74339e+21 1.15936e-05 0.717991 1.30059 1.10755 
0.013875 0.00609375 2.03794 1.52667e+21 1.01523e-05 -0.399672 3.18322 2.89084 
0.014625 0.00609375 2.09173 1.5861e+21 1.05476e-05 0.72862 -1.75149 -2.00803 
0.013875 0.00628125 1.99079 1.54776e+21 1.02926e-05 -4.59936 2.16293 -2.10584 
0.014625 0.00628125 1.97787 1.52434e+21 1.01369e-05 0.173217 -2.90757 -2.52056 
0.014625 0.00796875 2.08756 1.5353e+21 1.02097e-05 -0.358599 -1.59497 0.198271 
0.016875 0.00759375 2.00109 1.55448e+21 1.03373e-05 0.456747 2.47133 0.354616 
0.015375 0.00890625 1.97864 1.58972e+21 1.05716e-05 -0.0411062 -4.76784 1.276 
0.017625 0.00946875 1.96288 1.56102e+21 1.03808e-05 -1.68672 0.00909356 -5.4975 
0.018375 0.00684375 1.99994 1.53631e+21 1.02165e-05 2.82446 -0.093621 0.191142 
0.020625 0.00721875 2.0572 1.51451e+21 1.00715e-05 0.575047 -0.814139 1.58608 
0.020625 0.00740625 1.9619 1.52507e+21 1.01417e-05 -1.25571 -0.537646 1.42512 
0.020625 0.00778125 1.99051 1.49521e+21 9.94313e-06 -0.970145 0.378421 2.67477 
0.018375 0.00871875 1.97381 1.51487e+21 1.00739e-05 -0.18028 -5.45572 -1.37617 
0.022875 0.00853125 2.02344 1.59724e+21 1.06217e-05 4.87591 -1.07156 -2.19257 
0.018375 0.0210937 0 0 0 0 0 0 
0.018375 0.0212812 0 0 0 0 0 0 
0.019875 0.0216562 2.14174 1.49495e+21 9.94141e-06 -1.94687 -2.47356 1.30532 
0.020625 0.0216562 1.98494 1.50926e+21 1.00365e-05 -1.07264 1.21104 5.30566 
0.0135 0.000375 2.00645 1.43685e+21 9.55508e-06 -2.36705 -0.309063 -2.7299 
0.0165 0.000375 2.05824 1.57504e+21 1.0474e-05 2.18662 -0.387809 0.263094 
0.0195 0.000375 2.01882 1.47884e+21 9.83431e-06 -1.21285 -1.71581 -2.97314 
0.0225 0.000375 2.01378 1.55807e+21 1.03612e-05 -0.255981 1.32703 -1.24096 
0.02475 0.0016875 2.12308 1.44866e+21 9.63361e-06 -0.900596 -1.49937 0.900814 
0.02625 0.0016875 1.90416 1.52411e+21 1.01354e-05 3.93635 -0.171981 -2.85116 
0.01125 0.0054375 0 0 0 0 0 0 
0.01125 0.0058125 0 0 0 0 0 0 
0.01125 0.0069375 0 0 0 0 0 0 
0.01125 0.0073125 0 0 0 0 0 0 
0.003375 0.00046875 2.05158 8.13285e+21 5.40834e-05 20.8243 -6.14945 1.88587 
0.004125 0.00046875 1.9581 6.49484e+21 4.31907e-05 34.7001 -5.24584 9.84158 
0.003375 0.00065625 1.876 8.328e+21 5.53812e-05 27.0663 1.63301 -3.22603 
0.004125 0.00065625 1.83431 7.26056e+21 4.82828e-05 30.5094 -1.83377 -2.30434 
0.025875 0.00384375 1.99405 1.55466e+21 1.03385e-05 2.9314 -4.54254 0.906954 
0.026625 0.00384375 1.9962 1.48694e+21 9.88816e-06 5.17237 -7.50457 0.937924 
0.025875 0.00403125 2.07257 1.53289e+21 1.01937e-05 -0.143165 -2.03487 -0.202385 
0.026625 0.00403125 2.09814 1.48235e+21 9.85765e-06 5.54809 2.8025 1.13165 
0.024375 0.00496875 1.98827 1.63089e+21 1.08454e-05 -0.846532 -5.18096 -1.41796 
0.025125 0.00496875 1.9947 1.6195e+21 1.07697e-05 1.08722 0.0564081 -1.12447 
0.024375 0.00515625 2.06168 1.66596e+21 1.10787e-05 2.30749 -2.9945 1.22854 
0.025125 0.00515625 2.00722 1.56719e+21 1.04218e-05 1.86487 -2.25934 0.206961 
0.027375 0.00571875 1.94671 1.58126e+21 1.05154e-05 2.27275 -3.59482 -0.257103 
0.028125 0.00571875 1.92478 1.56543e+21 1.04101e-05 1.74638 2.99772 4.19143 
0.027375 0.00590625 2.05797 1.58855e+21 1.05638e-05 2.63759 -3.02009 -3.44223 
0.028125 0.00590625 1.91554 1.63454e+21 1.08697e-05 -0.0840428 -2.96218 -1.94729 
0.028875 0.00571875 1.95814 1.56345e+21 1.03969e-05 0.870938 0.164808 1.3142 
0.029625 0.00571875 1.97391 1.59907e+21 1.06338e-05 1.77162 5.51299 -3.12387 
0.028875 0.00590625 2.00178 1.53298e+21 1.01943e-05 -0.348339 0.62703 -2.83323 
0.029625 0.00590625 2.05616 1.54831e+21 1.02962e-05 2.08016 -0.636448 2.16016 
0.027375 0.00646875 1.96998 1.53439e+21 1.02037e-05 1.92894 -0.431233 -3.19172 
0.028125 0.00646875 1.9366 1.59388e+21 1.05993e-05 -1.90701 1.5959 -1.39353 
0.027375 0.00665625 1.97045 1.6408e+21 1.09113e-05 2.44302 1.15409 1.47341 
0.028125 0.00665625 2.03375 1.58299e+21 1.05269e-05 4.44205 3.00009 2.99681 
0.028875 0.00646875 2.02953 1.54489e+21 1.02735e-05 2.14962 0.954753 -2.48408 
0.029625 0.00646875 2.03368 1.55014e+21 1.03084e-05 -0.124101 0.734033 0.31084 
0.028875 0.00665625 2.00751 1.60849e+21 1.06965e-05 2.65304 0.005412 1.16674 
0.029625 0.00665625 1.97228 1.55068e+21 1.0312e-05 1.39983 2.44129 0.886198 
0.024375 0.00721875 2.08087 1.49256e+21 9.92554e-06 2.15631 0.468816 3.36399 
0.025125 0.00721875 2.02197 1.549e+21 1.03009e-05 0.418754 0.869225 -2.49947 
0.025125 0.00740625 2.0579 1.61523e+21 1.07413e-05 -0.904884 1.00816 3.11012 
0.025875 0.00721875 2.02785 1.54587e+21 1.028e-05 1.83478 2.87254 2.93192 
0.026625 0.00740625 2.01611 1.467e+21 9.75556e-06 2.22717 2.27673 -2.9636 
0.027375 0.00721875 1.93306 1.59134e+21 1.05824e-05 -2.3713 2.28253 2.37189 
0.028125 0.00721875 2.14713 1.57879e+21 1.0499e-05 1.55994 -0.0160373 0.285349 
0.027375 0.00740625 1.98912 1.52049e+21 1.01112e-05 2.60692 2.94272 -1.81665 
0.028125 0.00740625 1.96791 1.51896e+21 1.01011e-05 3.80965 -2.45247 0.680354 
0.028875 0.00778125 1.94273 1.56357e+21 1.03977e-05 1.94671 -1.4351 -0.341679 
0.028125 0.00815625 2.0307 1.54163e+21 1.02519e-05 2.24927 0.326815 5.01778 
0.024375 0.00834375 1.97337 1.45952e+21 9.70578e-06 -2.35454 -2.82042 1.74313 
0.025125 0.00834375 1.91071 1.43917e+21 9.57047e-06 1.6587 2.70247 -1.43578 
0.027375 0.0216562 1.93777 1.51998e+21 1.01079e-05 2.07907 -0.794289 6.69495 
0.028125 0.0216562 2.02701 1.54144e+21 1.02506e-05 -5.20206 -0.237318 4.04298 
0.028875 0.0216562 2.03265 1.51641e+21 1.00841e-05 -0.528088 8.09641 0.00986475 
0.029625 0.0216562 1.90981 1.54144e+21 1.02506e-05 -0.138593 -0.310058 0.584185 
0.007875 0.00309375 1.98643 2.19129e+21 1.45721e-05 -0.290062 13.9832 -1.65731 
0.008625 0.00309375 1.9664 2.14373e+21 1.42558e-05 -1.00385 14.5093 5.06993 
0.007875 0.00328125 1.96304 2.00743e+21 1.33494e-05 -5.94282 9.03959 1.46458 
0.008625 0.00328125 2.05823 2.21784e+21 1.47486e-05 0.395823 10.135 -1.12362 
0.007875 0.00459375 1.97195 1.96604e+21 1.30742e-05 1.46047 9.20754 -2.62306 
0.008625 0.00459375 1.95973 2.1114e+21 1.40408e-05 -1.80178 3.47064 1.20943 
0.007875 0.00478125 1.99087 2.02387e+21 1.34587e-05 -1.49342 8.08825 -1.11415 
0.008625 0.00478125 1.95606 2.0073e+21 1.33485e-05 -2.76637 10.7349 -0.0314814 
0.006375 0.00496875 2.09989 1.98166e+21 1.31781e-05 0.0101307 -3.14999 -1.73447 
0.007125 0.00496875 1.99258 1.99533e+21 1.32689e-05 2.32835 7.79021 -2.85708 
0.006375 0.00515625 1.99476 1.9343e+21 1.28631e-05 -7.08368 0.606938 -0.853318 
0.007125 0.00515625 2.00557 1.97106e+21 1.31076e-05 -1.43729 3.88771 1.13494 
0.007875 0.00496875 1.98451 1.98622e+21 1.32084e-05 2.80501 8.14124 -0.420751 
0.008625 0.00496875 2.00359 2.05455e+21 1.36628e-05 -0.11731 10.2965 1.60419 
0.008625 0.00515625 1.96363 2.0852e+21 1.38666e-05 1.84079 5.39104 -1.39328 
0.006375 0.00534375 1.95873 1.86643e+21 1.24117e-05 0.777211 1.75769 4.19166 
0.006375 0.00553125 2.05179 2.04102e+21 1.35728e-05 1.8443 10.0394 1.11021 
0.007125 0.00553125 1.97828 2.00112e+21 1.33074e-05 -2.55332 4.45976 0.999006 
0.006375 0.00646875 2.05905 2.02734e+21 1.34818e-05 -1.80994 0.489846 0.777922 
0.006375 0.00665625 1.96655 1.82358e+21 1.21268e-05 -4.10876 3.06153 2.49686 
0.008625 0.00665625 2.02107 1.83463e+21 1.22003e-05 -1.99896 7.26819 -1.67081 
0.006375 0.00721875 1.94161 1.88432e+21 1.25307e-05 1.89255 4.51281 0.613555 
0.006375 0.00740625 1.96921 1.81369e+21 1.20611e-05 -4.70839 -1.67071 -3.43763 
0.006375 0.00909375 1.96257 1.70349e+21 1.13282e-05 -2.61702 5.72986 -1.21997 
0.006375 0.00928125 1.92276 1.85427e+21 1.23309e-05 -1.00723 3.45174 0.133375 
0.010875 0.00946875 2.05119 1.67575e+21 1.11437e-05 1.08028 -1.35404 -4.14577 
0.011625 0.00946875 1.86499 1.4432e+21 9.59725e-06 -0.886593 7.66901 6.51881 
0.016875 0.00459375 1.92845 1.49794e+21 9.96129e-06 -1.17531 -0.530742 4.74634 
0.017625 0.00459375 1.83417 1.5275e+21 1.01579e-05 2.91878 0.167208 0.213432 
0.016875 0.00478125 1.97232 1.68774e+21 1.12235e-05 -1.05618 -0.686112 0.80284 
0.017625 0.00478125 2.01555 1.57649e+21 1.04836e-05 3.47604 0.112817 -4.58464 
0.016875 0.00571875 1.97502 1.56345e+21 1.03969e-05 2.08718 -2.0329 -3.03797 
0.017625 0.00571875 2.08767 1.54564e+21 1.02785e-05 3.00187 1.83664 2.08363 
0.016875 0.00590625 2.05931 1.56939e+21 1.04364e-05 2.86066 1.25837 3.8275 
0.017625 0.00590625 1.95181 1.54639e+21 1.02835e-05 0.765909 1.7363 -6.083 
0.015375 0.00646875 2.06236 1.57114e+21 1.0448e-05 0.442644 -0.278215 1.96702 
0.016125 0.00646875 1.98137 1.48541e+21 9.87794e-06 2.86975 -2.94425 -1.46285 
0.015375 0.00665625 1.94824 1.52008e+21 1.01085e-05 -0.119951 -0.0573946 -1.5451 
0.016125 0.00665625 1.94644 1.54218e+21 1.02555e-05 0.846357 -2.78996 0.438783 
0.013875 0.00684375 1.95352 1.58096e+21 1.05134e-05 1.96376 1.56233 -1.56821 
0.014625 0.00684375 1.9557 1.63223e+21 1.08543e-05 4.26617 -3.05043 -2.72793 
0.013875 0.00703125 2.03823 1.54041e+21 1.02437e-05 1.65529 0.616094 -0.614233 
0.014625 0.00703125 1.95549 1.6225e+21 1.07896e-05 0.888852 -1.96254 -3.06734 
0.016875 0.00684375 2.04183 1.63388e+21 1.08653e-05 2.2407 -0.498152 -1.13035 
0.017625 0.00684375 1.97214 1.52804e+21 1.01615e-05 1.80534 1.63276 1.00828 
0.016875 0.00703125 1.98384 1.62089e+21 1.07789e-05 0.152335 -1.13064 -2.43532 
0.017625 0.00703125 1.91016 1.46154e+21 9.71925e-06 -0.474782 -1.06213 1.22833 
0.013875 0.00759375 1.96664 1.47996e+21 9.84175e-06 0.860499 -2.33055 1.15564 
0.013875 0.00778125 2.01893 1.47484e+21 9.80771e-06 -0.388082 0.108393 -2.46503 
0.017625 0.00796875 2.01827 1.48275e+21 9.86029e-06 0.379497 -0.619489 2.29932 
0.016125 0.00834375 1.9776 1.5192e+21 1.01027e-05 -0.26051 -3.12106 -0.362629 
0.013875 0.00909375 1.9864 1.60672e+21 1.06847e-05 3.79227 -4.24836 1.78158 
0.021375 0.00571875 2.00046 1.48429e+21 9.87051e-06 5.70229 -1.22295 8.46083e-05 
0.022125 0.00571875 1.90925 1.59709e+21 1.06207e-05 2.17204 -1.231 1.89277 
0.022125 0.00590625 2.05305 1.4889e+21 9.90121e-06 0.338711 -2.14904 -3.322 
0.018375 0.00609375 1.951 1.57124e+21 1.04488e-05 2.92986 0.36064 0.0671414 
0.018375 0.00628125 2.07133 1.55497e+21 1.03406e-05 0.735014 -3.99642 0.420919 
0.019125 0.00628125 2.02699 1.49011e+21 9.9092e-06 0.296206 1.89146 -0.505917 
0.019875 0.00684375 2.0386 1.49662e+21 9.95253e-06 -1.50679 -0.986323 2.03968 
0.020625 0.00684375 2.04254 1.49662e+21 9.95253e-06 -1.39727 -2.1751 2.49342 
0.019875 0.00703125 2.11017 1.57582e+21 1.04792e-05 4.15402 2.27503 1.97303 
0.020625 0.00703125 1.97433 1.62733e+21 1.08218e-05 -1.00285 1.14443 -0.226434 
0.018375 0.00721875 1.96066 1.61956e+21 1.077e-05 0.0205619 0.499195 -1.65841 
0.019125 0.00721875 2.00538 1.57722e+21 1.04885e-05 -0.275211 -0.171423 -0.878013 
0.019125 0.00740625 1.9506 1.52813e+21 1.0162e-05 3.33756 2.08653 -3.32212 
0.022875 0.00721875 1.9292 1.55841e+21 1.03634e-05 2.9234 1.36572 3.95352 
0.023625 0.00721875 1.98141 1.549e+21 1.03009e-05 0.337478 0.235407 -0.21458 
0.022875 0.00740625 1.99521 1.5266e+21 1.01519e-05 3.47783 -0.928502 0.426103 
0.023625 0.00740625 2.00743 1.53424e+21 1.02027e-05 -0.76479 0.332988 -0.127515 
0.022125 0.00834375 2.08118 1.55446e+21 1.03372e-05 2.40903 -2.98252 0.0297279 
0.018375 0.0165937 0 0 0 0 0 0 
0.018375 0.0167812 0 0 0 0 0 0 
0.018375 0.0184687 0 0 0 0 0 0 
0.018375 0.0186562 0 0 0 0 0 0 
0.021375 0.0216562 1.92754 1.64158e+21 1.09165e-05 1.39556 -2.89954 5.81808 
0.022125 0.0216562 1.97224 1.48422e+21 9.87006e-06 2.94564 4.63025 2.34586 
0.022875 0.0216562 2.00854 1.51283e+21 1.00603e-05 -4.00644 5.00946 -5.18194 
0.023625 0.0216562 1.93584 1.49137e+21 9.91763e-06 -3.5603 0.617147 1.89934 
0.0241875 0.0157969 2.01935 1.50741e+21 1.00243e-05 1.28691 0.939783 -0.315129 
0.0245625 0.0157969 1.94079 1.55613e+21 1.03483e-05 -0.0590978 -4.08087 -1.42987 
0.0241875 0.0158906 1.99149 1.6723e+21 1.11208e-05 0.307089 1.37762 0.154911 
0.0245625 0.0158906 1.95066 1.59253e+21 1.05903e-05 3.14808 3.84857 1.88899 
0.0241875 0.0191719 1.91701 1.38609e+21 9.21749e-06 -4.05706 4.32684 -3.50041 
0.0245625 0.0191719 1.97887 1.56555e+21 1.04109e-05 0.840344 2.05397 2.36713 
0.0241875 0.0192656 1.91985 1.53208e+21 1.01883e-05 1.24394 1.98248 0.596417 
0.0245625 0.0192656 2.07036 1.53208e+21 1.01883e-05 4.11074 -2.89928 -2.47781 
0.0256875 0.0197344 2.00201 1.54616e+21 1.0282e-05 -2.36724 1.88366 0.411285 
0.0260625 0.0197344 1.98486 1.57598e+21 1.04803e-05 4.38371 4.76346 1.20925 
0.0256875 0.0198281 1.95494 1.61419e+21 1.07344e-05 2.4227 -0.446232 2.00643 
0.0260625 0.0198281 1.98577 1.53428e+21 1.0203e-05 3.21811 -0.484687 -1.84623 
0.0264375 0.0199219 1.90913 1.62023e+21 1.07745e-05 -1.39586 -2.3966 1.3134 
0.0268125 0.0199219 1.89339 1.48161e+21 9.85273e-06 -1.29694 -4.23416 0.439236 
0.0264375 0.0200156 1.95454 1.38873e+21 9.23503e-06 1.21283 1.18097 0.992329 
0.0268125 0.0200156 2.01254 1.54027e+21 1.02428e-05 -0.213949 -1.81043 -1.0717 
0.0249375 0.0208594 2.02836 1.53656e+21 1.02181e-05 -1.563 1.92177 -2.75526 
0.0253125 0.0208594 1.96545 1.57563e+21 1.04779e-05 -2.70431 -2.74234 2.31296 
0.0249375 0.0209531 1.97331 1.53401e+21 1.02011e-05 -1.46963 -1.63531 -4.11091 
0.0253125 0.0209531 1.96126 1.54481e+21 1.0273e-05 -1.75148 0.252327 0.936694 
0.0256875 0.0214219 1.96529 1.57018e+21 1.04417e-05 3.71904 -4.71308 -2.99197 
0.0260625 0.0214219 1.97274 1.48987e+21 9.90765e-06 -3.27774 -1.3845 0.203489 
0.0256875 0.0215156 2.02467 1.52336e+21 1.01303e-05 -2.52237 1.60073 4.10596 
0.0260625 0.0215156 1.99323 1.55492e+21 1.03402e-05 0.658272 -0.0931884 -2.33603 
0.0069375 0.0124219 1.91317 1.84773e+21 1.22874e-05 0.382699 2.42607 -0.96254 
0.0073125 0.0124219 1.99668 1.84044e+21 1.22389e-05 -0.551753 0.365927 1.93003 
0.0069375 0.0125156 2.05976 1.76155e+21 1.17143e-05 4.98832 1.25515 -1.74252 
0.0073125 0.0125156 1.99644 1.85921e+21 1.23637e-05 -0.859135 -1.33635 -0.339648 
0.0091875 0.0124219 1.98751 1.84409e+21 1.22632e-05 -0.58086 2.73012 -1.74236 
0.0095625 0.0124219 1.82902 1.78942e+21 1.18996e-05 0.26704 0.492425 -2.31985 
0.0091875 0.0125156 2.01765 1.99304e+21 1.32537e-05 2.9184 3.65442 1.08595 
0.0095625 0.0125156 2.08738 1.69644e+21 1.12813e-05 1.50477 1.13442 0.964567 
0.0234375 0.0137344 2.03761 1.55909e+21 1.03679e-05 -1.26764 -2.13515 1.38375 
0.0238125 0.0137344 1.94984 1.57886e+21 1.04994e-05 -0.516667 4.30028 2.72274 
0.0234375 0.0138281 1.96095 1.40447e+21 9.33971e-06 -3.53545 5.2133 1.64151 
0.0238125 0.0138281 2.10183 1.57143e+21 1.045e-05 -5.76388 2.25106 -4.16717 
0.0211875 0.0163594 2.08092 1.59118e+21 1.05813e-05 -2.41824 0.463174 5.03872 
0.0215625 0.0163594 2.04294 1.38363e+21 9.20116e-06 0.315018 -1.27618 -1.53611 
0.0211875 0.0164531 1.92213 1.56285e+21 1.0393e-05 2.98784 2.84448 -1.45702 
0.0215625 0.0164531 2.00467 1.62063e+21 1.07772e-05 0.625487 -0.322646 -1.64994 
0.0204375 0.0165469 2.00578 1.55673e+21 1.03523e-05 -1.93981 -2.50905 -4.22739 
0.0208125 0.0165469 1.95662 1.48833e+21 9.89742e-06 2.10152 -0.0298378 7.71799 
0.0204375 0.0166406 1.98527 1.61869e+21 1.07643e-05 2.30326 -3.56467 0.994425 
0.0208125 0.0166406 2.15593 1.53708e+21 1.02216e-05 -0.992257 -2.39184 4.11834 
0.0226875 0.0191719 1.96164 1.61277e+21 1.0725e-05 -4.3609 0.28528 0.721452 
0.0230625 0.0191719 1.95607 1.61277e+21 1.0725e-05 3.75553 0.142756 -6.53862 
0.0226875 0.0192656 1.94699 1.47804e+21 9.82894e-06 0.513254 -1.54826 -2.1779 
0.0230625 0.0192656 2.15038 1.48744e+21 9.89145e-06 -3.90268 1.733 0.644123 
0.0234375 0.0191719 2.00603 1.50179e+21 9.98692e-06 -2.34768 1.34178 -3.98375 
0.0238125 0.0191719 1.91624 1.55138e+21 1.03167e-05 -2.33088 -2.46269 1.99116 
0.0234375 0.0192656 2.08416 1.48039e+21 9.84457e-06 2.03889 -3.07395 8.72298 
0.0238125 0.0192656 2.03138 1.51328e+21 1.00633e-05 0.241807 -0.0242853 -4.09348 
0.0204375 0.0199219 1.97153 1.56342e+21 1.03967e-05 -0.0776148 0.341417 -2.68168 
0.0208125 0.0199219 2.05688 1.56115e+21 1.03816e-05 1.98061 0.771877 0.732998 
0.0204375 0.0200156 2.00477 1.52443e+21 1.01375e-05 -1.63248 -0.306686 -1.44845 
0.0208125 0.0200156 2.0385 1.49051e+21 9.91187e-06 3.04799 -2.99799 -3.80429 
0.0204375 0.0204844 1.9922 1.54259e+21 1.02582e-05 3.37771 -0.171048 -6.78279 
0.0208125 0.0204844 1.93847 1.56248e+21 1.03905e-05 1.79904 0.803344 -3.38302 
0.0204375 0.0205781 1.92704 1.50696e+21 1.00213e-05 1.89755 0.321305 -0.490924 
0.0208125 0.0205781 1.92093 1.48056e+21 9.84574e-06 -1.55285 0.74812 -1.88024 
0.02775 0.0016875 1.95669 1.6113e+21 1.07152e-05 1.19256 -0.888442 -2.31933 
0.02925 0.0016875 1.97074 1.51908e+21 1.01019e-05 0.645273 -2.42542 2.68126 
0.02025 0.0016875 2.02461 1.58783e+21 1.05591e-05 1.63076 0.443474 -1.07334 
0.02175 0.0016875 1.92465 1.59118e+21 1.05814e-05 -0.19687 0.263198 1.71007 
0.02325 0.0020625 1.91713 1.51314e+21 1.00624e-05 -0.422339 0.860892 0.380517 
0.01575 0.0016875 1.95203 1.48052e+21 9.84546e-06 -2.18178 -0.665398 3.0191 
0.01725 0.0016875 2.01856 1.42519e+21 9.47751e-06 2.86914 0.205108 -9.748 
0.01275 0.0024375 2.09043 1.55618e+21 1.03486e-05 -2.10184 0.506597 -0.570497 
0.01275 0.0028125 1.84383 1.54675e+21 1.02859e-05 -1.57015 2.93406 4.94972 
0.024375 0.00534375 2.01928 1.58633e+21 1.05491e-05 4.7102 -1.24126 0.303671 
0.025125 0.00534375 1.90544 1.58209e+21 1.05209e-05 3.30038 1.27153 1.55928 
0.024375 0.00553125 1.90242 1.46913e+21 9.76968e-06 0.925215 -6.82216 0.712227 
0.025125 0.00553125 1.88213 1.61849e+21 1.0763e-05 -2.21869 -2.58906 -3.24434 
0.027375 0.00534375 2.10089 1.56939e+21 1.04364e-05 0.731845 0.369178 -2.06475 
0.028125 0.00534375 2.09812 1.62233e+21 1.07885e-05 4.45545 -2.12282 -2.25403 
0.027375 0.00553125 1.99897 1.59394e+21 1.05997e-05 0.1434 -1.967 0.834522 
0.028125 0.00553125 1.98132 1.65737e+21 1.10215e-05 -4.83558 1.1655 1.97505 
0.025125 0.00609375 1.95675 1.52295e+21 1.01276e-05 5.20718 1.82185 0.249862 
0.024375 0.00628125 1.94308 1.54416e+21 1.02687e-05 0.307058 2.51532 0.704336 
0.025875 0.00609375 1.89298 1.60653e+21 1.06834e-05 3.13499 0.0257506 2.04817 
0.026625 0.00609375 1.94194 1.51924e+21 1.01029e-05 2.60384 2.60286 0.648642 
0.025875 0.00628125 2.0893 1.49371e+21 9.93317e-06 2.25339 -7.59509 0.113962 
0.026625 0.00628125 1.9764 1.51713e+21 1.00889e-05 1.02931 -0.211055 -1.05747 
0.025875 0.00646875 1.99013 1.53789e+21 1.0227e-05 -1.8991 -2.40487 -1.3628 
0.026625 0.00646875 1.93841 1.55714e+21 1.0355e-05 1.23187 -2.33481 0.990977 
0.025875 0.00665625 2.02501 1.45717e+21 9.69015e-06 0.0579467 0.388853 -0.529817 
0.028875 0.00609375 1.96384 1.48395e+21 9.86828e-06 5.15128 2.54761 -1.13893 
0.029625 0.00609375 1.94293 1.55267e+21 1.03253e-05 4.35231 1.70158 2.30668 
0.028875 0.00628125 1.90844 1.53155e+21 1.01848e-05 2.99363 1.62159 0.810538 
0.029625 0.00628125 1.96168 1.51173e+21 1.0053e-05 -1.17894 -1.20214 -0.878705 
0.027375 0.00684375 1.991 1.54623e+21 1.02825e-05 1.00152 -3.28095 -0.0603386 
0.027375 0.00703125 1.99955 1.50983e+21 1.00404e-05 2.13614 2.52301 -0.281836 
0.028125 0.00703125 2.02801 1.55168e+21 1.03187e-05 5.10339 0.736435 -0.887797 
0.028875 0.00721875 2.02223 1.49256e+21 9.92554e-06 3.01206 -0.797024 3.67216 
0.028875 0.00740625 2.02674 1.52049e+21 1.01112e-05 -2.84267 -4.00136 -0.919493 
0.029625 0.00740625 2.04779 1.63204e+21 1.08531e-05 3.6577 2.48528 2.72099 
0.024375 0.00778125 2.0135 1.49666e+21 9.9528e-06 4.24653 0.663165 -0.476652 
0.025875 0.00815625 2.07772 1.4778e+21 9.82739e-06 1.22994 -2.1286 -2.1431 
0.025125 0.00871875 2.03284 1.49539e+21 9.94438e-06 0.137552 3.06777 -0.358624 
0.029625 0.00834375 1.94133 1.48664e+21 9.88618e-06 -2.9781 1.10996 0.149638 
0.028125 0.00890625 2.01546 1.59734e+21 1.06223e-05 0.731402 1.78754 -0.142549 
0.007875 0.00271875 2.09704 2.31037e+21 1.5364e-05 -1.13051 4.41687 -0.104088 
0.008625 0.00271875 2.0824 2.29372e+21 1.52532e-05 0.146591 13.6934 -1.73769 
0.007875 0.00290625 1.86357 2.2392e+21 1.48907e-05 2.34258 13.1267 -3.46983 
0.008625 0.00290625 1.90973 2.32487e+21 1.54604e-05 2.42363 13.5685 2.98116 
0.006375 0.00384375 1.92766 2.13104e+21 1.41714e-05 2.36985 7.67759 -2.08496 
0.007125 0.00384375 1.99437 2.01988e+21 1.34322e-05 -1.22311 9.21494 -2.63666 
0.006375 0.00403125 2.06373 1.94769e+21 1.29522e-05 6.09558 2.57136 0.741691 
0.007125 0.00403125 1.9932 2.09439e+21 1.39277e-05 3.0588 0.0790319 -3.55576 
0.007875 0.00421875 2.02686 2.1408e+21 1.42363e-05 -1.7483 12.1138 -1.25183 
0.008625 0.00421875 2.04865 2.04154e+21 1.35763e-05 4.14479 4.65737 -0.304348 
0.007875 0.00440625 2.05086 2.09851e+21 1.39551e-05 1.7442 8.07757 1.5046 
0.008625 0.00440625 1.98451 1.85449e+21 1.23324e-05 -3.60529 9.33573 -2.35271 
0.007875 0.00590625 2.03695 1.89131e+21 1.25772e-05 0.666883 5.69716 0.569887 
0.008625 0.00590625 2 1.85682e+21 1.23478e-05 4.13694 8.79908 1.84221 
0.007875 0.00684375 1.97105 1.89517e+21 1.26029e-05 1.97871 7.50733 -1.5152 
0.013875 0.00646875 1.94194 1.5029e+21 9.99429e-06 -0.900262 -0.370154 0.669666 
0.014625 0.00646875 2.04414 1.53439e+21 1.02037e-05 0.533055 2.43547 0.863954 
0.013875 0.00665625 2.02807 1.50477e+21 1.00067e-05 -1.08814 -0.402958 0.477768 
0.016125 0.00609375 2.00642 1.52481e+21 1.014e-05 0.229687 -2.26553 0.183853 
0.015375 0.00628125 1.93054 1.56218e+21 1.03885e-05 -1.45346 4.06468 -2.20967 
0.015375 0.00721875 1.96266 1.55214e+21 1.03217e-05 0.147995 3.68777 0.36086 
0.016125 0.00721875 2.05884 1.52862e+21 1.01653e-05 1.01076 1.17908 0.568881 
0.012375 0.00946875 1.84379 1.68546e+21 1.12083e-05 6.34765 1.80273 0.653658 
0.022875 0.00609375 2.02219 1.4951e+21 9.94238e-06 1.31539 2.13296 -0.867334 
0.023625 0.00609375 1.89643 1.47838e+21 9.83123e-06 1.30702 0.869053 -2.01085 
0.022875 0.00628125 2.09646 1.56398e+21 1.04005e-05 1.7712 0.904347 1.09951 
0.023625 0.00628125 1.95791 1.50092e+21 9.98109e-06 3.88945 -1.93469 2.20838 
0.022875 0.00646875 2.01548 1.51865e+21 1.0099e-05 -0.515966 -0.851436 -0.749708 
0.022875 0.00665625 2.00703 1.46737e+21 9.75799e-06 5.72479 -1.56411 1.70546 
0.023625 0.00665625 2.01716 1.58129e+21 1.05156e-05 2.55753 3.18244 2.50685 
0.022875 0.00684375 2.0257 1.50985e+21 1.00405e-05 2.97135 -0.974384 2.17169 
0.023625 0.00684375 2.00913 1.619e+21 1.07663e-05 0.522074 -4.45369 -2.73224 