ITEM: TIMESTEP
500000
ITEM: NUMBER OF CELLS
27340
ITEM: BOX BOUNDS oo ao pp
0 0.12
0 0.03
-0.1 0.1
ITEM: CELLS xc yc f_out[1] f_out[2] f_out[3] f_out[4] f_out[5] f_out[6] 
0.003 0.00375 0 0 0 0 0 0 
0.003 0.00525 0 0 0 0 0 0 
0.003 0.00675 0 0 0 0 0 0 
0.003 0.00825 0 0 0 0 0 0 
0.003 0.00975 0 0 0 0 0 0 
0.003 0.01125 0 0 0 0 0 0 
0.003 0.01275 0 0 0 0 0 0 
0.003 0.01425 0 0 0 0 0 0 
0.003 0.01575 0 0 0 0 0 0 
0.003 0.01725 0 0 0 0 0 0 
0.003 0.01875 0 0 0 0 0 0 
0.003 0.02025 0 0 0 0 0 0 
0.003 0.02175 0 0 0 0 0 0 
0.003 0.02325 0 0 0 0 0 0 
0.027 0.02325 0 0 0 0 0 0 
0.003 0.02475 0 0 0 0 0 0 
0.027 0.02475 0 0 0 0 0 0 
0.003 0.02625 0 0 0 0 0 0 
0.027 0.02625 0 0 0 0 0 0 
0.003 0.02775 0 0 0 0 0 0 
0.027 0.02775 0 0 0 0 0 0 
0.003 0.02925 0 0 0 0 0 0 
0.027 0.02925 0 0 0 0 0 0 
0.009 0.01425 0 0 0 0 0 0 
0.009 0.01575 0 0 0 0 0 0 
0.009 0.01725 0 0 0 0 0 0 
0.009 0.01875 0 0 0 0 0 0 
0.009 0.02025 0 0 0 0 0 0 
0.009 0.02175 0 0 0 0 0 0 
0.009 0.02325 0 0 0 0 0 0 
0.009 0.02475 0 0 0 0 0 0 
0.009 0.02625 0 0 0 0 0 0 
0.009 0.02775 0 0 0 0 0 0 
0.009 0.02925 0 0 0 0 0 0 
0.015 0.01425 0 0 0 0 0 0 
0.015 0.01575 0 0 0 0 0 0 
0.015 0.01725 0 0 0 0 0 0 
0.015 0.01875 0 0 0 0 0 0 
0.015 0.02025 0 0 0 0 0 0 
0.015 0.02175 0 0 0 0 0 0 
0.015 0.02325 0 0 0 0 0 0 
0.015 0.02475 0 0 0 0 0 0 
0.015 0.02625 0 0 0 0 0 0 
0.015 0.02775 0 0 0 0 0 0 
0.015 0.02925 0 0 0 0 0 0 
0.021 0.02325 0 0 0 0 0 0 
0.021 0.02475 0 0 0 0 0 0 
0.021 0.02625 0 0 0 0 0 0 
0.021 0.02775 0 0 0 0 0 0 
0.021 0.02925 0 0 0 0 0 0 
0.0015 0.000375 0 0 0 0 0 0 
0.0015 0.001125 0 0 0 0 0 0 
0.0015 0.001875 0 0 0 0 0 0 
0.0015 0.002625 0 0 0 0 0 0 
0.0045 0.002625 0 0 0 0 0 0 
0.0255 0.022125 0 0 0 0 0 0 
0.0285 0.022125 0 0 0 0 0 0 
0.0105 0.000375 2.02662 3.81171e+21 2.53479e-05 2.1513 2.74813 -6.09418 
0.0075 0.013125 0 0 0 0 0 0 
0.0105 0.013125 0 0 0 0 0 0 
0.0135 0.013125 0 0 0 0 0 0 
0.0165 0.013125 0 0 0 0 0 0 
0.0195 0.022125 0 0 0 0 0 0 
0.0225 0.022125 0 0 0 0 0 0 
0.00375 0.0001875 1.9193 7.95668e+21 5.29119e-05 25.695 2.10013 -3.10258 
0.00525 0.0001875 1.93384 6.09646e+21 4.05415e-05 40.0318 5.84724 1.43908 
0.00375 0.0016875 2.04625 8.02946e+21 5.33959e-05 13.2087 0.111671 -0.429008 
0.00525 0.0016875 2.06069 5.97475e+21 3.97321e-05 16.7423 1.94901 -0.586815 
0.00375 0.0020625 0 0 0 0 0 0 
0.00525 0.0020625 0 0 0 0 0 0 
0.00825 0.0009375 1.9136 3.28062e+21 2.18161e-05 21.4762 10.526 -3.208 
0.01125 0.0024375 0 0 0 0 0 0 
0.00975 0.0028125 2.01567 2.7618e+21 1.8366e-05 -2.70642 5.21808 1.46974 
0.01125 0.0028125 0 0 0 0 0 0 
0.01125 0.0084375 0 0 0 0 0 0 
0.01125 0.0088125 0 0 0 0 0 0 
0.01125 0.0091875 0 0 0 0 0 0 
0.0255 0.000375 1.95416 1.9523e+21 1.29828e-05 2.78884 0.222017 2.25107 
0.0285 0.000375 1.9308 1.95041e+21 1.29703e-05 0.545403 3.72642 0.47935 
0.01125 0.0039375 0 0 0 0 0 0 
0.01125 0.0043125 0 0 0 0 0 0 
0.01125 0.0046875 0 0 0 0 0 0 
0.01125 0.0050625 0 0 0 0 0 0 
0.01125 0.0054375 0 0 0 0 0 0 
0.01125 0.0058125 0 0 0 0 0 0 
0.01125 0.0076875 0 0 0 0 0 0 
0.01125 0.0080625 0 0 0 0 0 0 
0.02325 0.0016875 2.02966 1.86784e+21 1.24211e-05 0.966641 0.341358 -0.681815 
0.003375 0.00084375 1.94206 8.31287e+21 5.52806e-05 21.3232 -8.10593 5.9988 
0.004125 0.00084375 1.95471 7.63231e+21 5.07549e-05 22.8503 -2.14958 3.27997 
0.003375 0.00103125 2.06073 8.08664e+21 5.37762e-05 21.4824 -2.3271 1.77206 
0.004125 0.00103125 1.89357 7.17747e+21 4.77302e-05 24.506 -2.15848 -1.13992 
0.004875 0.00084375 2.04815 6.2373e+21 4.14781e-05 24.31 -2.56719 0.793314 
0.005625 0.00084375 1.83997 5.45932e+21 3.63045e-05 35.8048 2.56548 0.590418 
0.004875 0.00103125 1.93943 6.17877e+21 4.10888e-05 30.5435 0.58351 -2.67977 
0.005625 0.00103125 1.93013 5.24592e+21 3.48854e-05 33.4883 1.66171 -0.595063 
0.003375 0.00121875 1.96024 8.7609e+21 5.826e-05 17.8315 -9.87147 3.48674 
0.004125 0.00121875 1.97511 7.48476e+21 4.97737e-05 21.5523 -1.37228 1.07985 
0.003375 0.00140625 2.01593 8.60938e+21 5.72524e-05 17.4575 0.153585 0.446989 
0.004125 0.00140625 1.98017 6.8892e+21 4.58132e-05 16.7536 0.865761 1.01284 
0.004875 0.00121875 1.89753 6.23111e+21 4.14369e-05 26.1229 -2.4379 3.76994 
0.005625 0.00121875 1.81657 5.57178e+21 3.70524e-05 29.7577 0.653811 -0.759373 
0.004875 0.00140625 2.02593 6.2534e+21 4.15851e-05 17.4805 0.281924 0.583802 
0.005625 0.00140625 1.9499 5.05423e+21 3.36106e-05 24.6381 1.06106 -1.92061 
0.025875 0.00721875 2.10647 1.93939e+21 1.28969e-05 1.76195 -1.22895 -0.012928 
0.025125 0.00759375 1.97619 1.92857e+21 1.2825e-05 1.49888 0.0742384 -3.21715 
0.024375 0.0216562 2.08263 1.95273e+21 1.29857e-05 -0.988972 -3.35861 -0.843805 
0.025125 0.0216562 1.9581 2.28892e+21 1.52213e-05 -3.88647 -2.01446 4.2448 
0.025875 0.0216562 1.99194 1.8812e+21 1.251e-05 -3.29436 -3.97249 4.96365 
0.026625 0.0216562 1.92375 1.75245e+21 1.16538e-05 0.337685 -0.439559 0.682402 
0.027375 0.0216562 1.89372 1.95273e+21 1.29857e-05 0.107449 0.899703 -2.70886 
0.028125 0.0216562 2.03457 1.84186e+21 1.22484e-05 0.1344 2.3137 -0.0865713 
0.007875 0.00196875 1.91669 2.59265e+21 1.72411e-05 4.90469 11.4842 -3.85243 
0.008625 0.00196875 2.13899 3.0008e+21 1.99553e-05 4.36983 13.8309 5.20948 
0.007875 0.00215625 1.93591 2.70312e+21 1.79758e-05 4.0904 12.1561 0.20759 
0.008625 0.00215625 1.98212 2.91307e+21 1.93719e-05 4.61315 11.4859 -2.34238 
0.007875 0.00234375 1.88756 2.65105e+21 1.76295e-05 2.29803 9.51534 -0.887728 
0.008625 0.00234375 1.95275 2.38547e+21 1.58633e-05 2.92115 12.6676 -1.21081 
0.007875 0.00253125 1.97689 2.66035e+21 1.76914e-05 -2.42029 14.0378 -1.04887 
0.008625 0.00253125 2.06365 2.61117e+21 1.73643e-05 1.43781 15.5893 -0.760245 
0.008625 0.00478125 1.97238 2.44521e+21 1.62607e-05 1.03939 8.55091 -1.44233 
0.006375 0.00496875 1.96326 2.58812e+21 1.7211e-05 -1.55303 4.22722 2.36276 
0.006375 0.00515625 2.02068 2.21004e+21 1.46967e-05 -1.87379 -0.625707 2.74088 
0.007125 0.00515625 1.93294 2.26079e+21 1.50343e-05 -3.68188 8.73184 -2.47727 
0.006375 0.00534375 2.04414 2.54152e+21 1.69011e-05 1.11166 5.97901 4.55894 
0.006375 0.00553125 2.00108 2.28656e+21 1.52056e-05 4.54139 0.419561 -0.127298 
0.007875 0.00534375 1.96742 2.28101e+21 1.51687e-05 -1.05688 5.24316 -2.28284 
0.008625 0.00534375 1.96865 2.34878e+21 1.56194e-05 4.01882 8.08288 1.02707 
0.006375 0.00571875 1.9511 2.40083e+21 1.59655e-05 -3.36737 5.70726 1.5867 
0.007125 0.00571875 1.95058 2.34913e+21 1.56217e-05 1.42682 4.22414 0.542386 
0.006375 0.00590625 1.93215 2.4324e+21 1.61755e-05 1.23811 2.1399 -0.148163 
0.006375 0.00684375 1.98754 2.27284e+21 1.51144e-05 0.421945 2.11408 -2.4811 
0.006375 0.00703125 2.01306 2.07642e+21 1.38082e-05 -1.4334 7.84172 -0.0664014 
0.006375 0.00721875 2.10303 2.29587e+21 1.52676e-05 -2.11549 4.53034 3.73642 
0.006375 0.00740625 1.97044 2.31511e+21 1.53955e-05 -0.580383 6.6569 -2.78903 
0.006375 0.00759375 1.97762 2.25236e+21 1.49782e-05 1.16958 -1.94766 -4.36749 
0.006375 0.00778125 2.07974 2.28535e+21 1.51976e-05 -3.67974 1.74799 -0.756894 
0.006375 0.00796875 1.9229 2.3381e+21 1.55484e-05 2.21439 -0.355322 3.96984 
0.006375 0.00815625 2.09949 2.27915e+21 1.51563e-05 3.96513 4.6117 -2.16709 
0.006375 0.00834375 1.98248 2.28134e+21 1.51709e-05 4.16706 -0.732067 4.09012 
0.006375 0.00853125 1.96826 2.23369e+21 1.4854e-05 1.67791 6.04503 -1.67583 
0.006375 0.00909375 1.97011 2.28454e+21 1.51922e-05 0.909397 1.38699 -0.962346 
0.010125 0.00946875 1.958 2.30501e+21 1.53283e-05 1.53856 -6.79859 -2.912 
0.006375 0.0100312 1.98264 2.28892e+21 1.52213e-05 -2.26648 1.63861 2.02896 
0.006375 0.0105937 1.98964 2.13333e+21 1.41867e-05 -0.176896 1.95015 -2.37963 
0.006375 0.0107812 1.97535 2.10411e+21 1.39923e-05 -2.15564 1.51946 3.65518 
0.006375 0.0111562 2.00687 2.18365e+21 1.45213e-05 -2.32366 -4.53878 -3.24105 
0.006375 0.0113437 1.96959 2.18684e+21 1.45425e-05 -0.190464 0.785922 -2.91453 
0.023625 0.00684375 1.97464 2.05062e+21 1.36366e-05 1.96887 3.15476 -1.90458 
0.019875 0.0216562 1.99029 1.93127e+21 1.2843e-05 -1.02551 0.397146 1.36285 
0.020625 0.0216562 2.18149 1.92412e+21 1.27954e-05 1.46943 4.29957 -3.26767 
0.0135 0.000375 1.98337 1.9117e+21 1.27128e-05 0.397415 -0.203511 3.24954 
0.0165 0.000375 2.02341 1.90326e+21 1.26567e-05 -1.697 -0.121301 0.806565 
0.003375 0.00046875 2.0669 8.22816e+21 5.47172e-05 23.7468 -3.08268 -4.43847 
0.004125 0.00046875 1.85148 7.14674e+21 4.75258e-05 32.8659 -2.22517 -0.654756 
0.003375 0.00065625 1.98324 7.39762e+21 4.91942e-05 21.9309 2.31441 3.01942 
0.004125 0.00065625 1.86824 7.62273e+21 5.06912e-05 29.9554 1.10254 -5.51092 
0.025875 0.00571875 2.02526 2.07998e+21 1.38319e-05 0.216462 -3.51496 0.998707 
0.026625 0.00571875 1.95525 1.91572e+21 1.27395e-05 1.76609 0.587089 1.77221 
0.025875 0.00590625 1.96519 1.99862e+21 1.32908e-05 2.38998 3.24546 -4.37078 
0.027375 0.00534375 2.00537 1.81507e+21 1.20702e-05 -1.27557 0.324098 4.29452 
0.028125 0.00534375 2.02415 1.97815e+21 1.31547e-05 2.72415 0.434478 -1.21715 
0.027375 0.00553125 2.03026 1.94587e+21 1.29401e-05 -0.46276 0.169636 1.16782 
0.028125 0.00553125 2.0392 2.06864e+21 1.37565e-05 3.98415 2.04187 -1.46774 
0.024375 0.00740625 1.99152 1.96059e+21 1.30379e-05 2.06467 -0.25175 -2.32816 
0.028875 0.0216562 1.97466 1.97419e+21 1.31284e-05 2.06449 -0.206707 -4.80991 
0.029625 0.0216562 1.83421 2.03499e+21 1.35327e-05 -4.60302 0.978705 7.23399 
0.007875 0.00346875 1.9438 2.52211e+21 1.6772e-05 -2.2815 10.0721 0.798491 
0.008625 0.00346875 2.01249 2.46991e+21 1.64249e-05 -1.55469 9.99201 1.99414 
0.007875 0.00365625 1.99255 2.42682e+21 1.61384e-05 -1.46942 7.47101 -0.777227 
0.008625 0.00365625 2.00576 2.48873e+21 1.65501e-05 -0.157906 6.90128 1.0199 
0.007875 0.00421875 1.96948 2.49224e+21 1.65734e-05 0.211467 10.0483 -3.46216 
0.008625 0.00421875 1.97738 2.50029e+21 1.66269e-05 1.0919 6.05796 2.17524 
0.007875 0.00440625 2.00179 2.38875e+21 1.58852e-05 -1.01165 5.91522 -1.57846 
0.008625 0.00440625 2.0186 2.47352e+21 1.64489e-05 -3.68721 7.87881 0.667185 
0.006375 0.00609375 1.94059 2.44114e+21 1.62336e-05 -1.12302 2.70177 -3.88542 
0.006375 0.00628125 1.84176 2.33786e+21 1.55468e-05 3.61674 3.29293 -1.08108 
0.006375 0.00646875 2.04167 2.31602e+21 1.54016e-05 2.72285 2.69596 0.455377 
0.006375 0.00665625 2.04813 2.32092e+21 1.54341e-05 0.918263 2.15918 -1.1725 
0.006375 0.00871875 2.01846 2.38036e+21 1.58294e-05 0.320974 1.1411 5.02363 
0.006375 0.00890625 2.04827 2.24924e+21 1.49575e-05 1.53541 6.62999 0.124668 
0.010875 0.00946875 1.85444 1.95618e+21 1.30086e-05 6.72225 -3.60611 3.11983 
0.011625 0.00946875 1.84429 1.9083e+21 1.26902e-05 -4.27513 1.0071 -1.08301 
0.015375 0.00496875 1.99935 2.01127e+21 1.3375e-05 3.52015 1.47819 2.34723 
0.015375 0.00515625 1.99785 1.88107e+21 1.25091e-05 -1.23423 -5.24384 -1.4411 
0.016125 0.00515625 1.97412 1.91619e+21 1.27426e-05 1.26122 1.00942 -1.59379 
0.017625 0.00571875 2.04932 2.04634e+21 1.36081e-05 2.33041 2.67625 0.701675 
0.017625 0.00796875 2.00397 1.98268e+21 1.31848e-05 0.662007 0.135152 1.43795 
0.012375 0.00946875 1.88182 2.00279e+21 1.33185e-05 -6.33316 -1.52782 1.62161 
0.019125 0.00571875 1.88484 1.99092e+21 1.32396e-05 -0.892018 1.01953 -1.15463 
0.018375 0.00590625 2.11511 2.01395e+21 1.33928e-05 0.978461 -1.58757 -2.74675 
0.019125 0.00590625 2.05318 1.95071e+21 1.29722e-05 -3.92551 -1.0355 2.17259 
0.022875 0.00590625 1.96419 2.01395e+21 1.33928e-05 3.58811 2.73528 3.42095 
0.019125 0.00665625 1.98796 2.04547e+21 1.36024e-05 2.14285 -1.99726 2.12174 
0.021375 0.00646875 2.04965 1.97879e+21 1.3159e-05 3.11328 2.30224 0.647134 
0.023625 0.00646875 1.99024 1.92455e+21 1.27983e-05 2.8124 1.09024 -2.25292 
0.023625 0.00665625 1.94925 1.90095e+21 1.26413e-05 -1.57037 -0.816743 1.70352 
0.020625 0.00684375 2.0198 1.93486e+21 1.28668e-05 -2.2571 -0.789683 4.13002 
0.019875 0.00703125 2.10886 2.02652e+21 1.34764e-05 2.04584 2.11912 -3.88607 
0.018375 0.0165937 0 0 0 0 0 0 
0.018375 0.0167812 0 0 0 0 0 0 
0.018375 0.0188437 0 0 0 0 0 0 
0.018375 0.0190312 0 0 0 0 0 0 
0.021375 0.0216562 2.01186 2.02426e+21 1.34613e-05 -4.01093 -1.12753 -0.167306 
0.022125 0.0216562 1.96938 2.08148e+21 1.38419e-05 3.73253 0.723698 -4.15032 
0.022875 0.0216562 1.94769 2.0493e+21 1.36278e-05 -1.35098 -1.26096 -2.93543 
0.023625 0.0216562 1.96913 1.97777e+21 1.31522e-05 0.519666 -0.746041 4.40118 
0.024375 0.00384375 1.95241 1.94333e+21 1.29231e-05 2.58387 -2.18944 -6.78722 
0.025125 0.00384375 2.01014 1.908e+21 1.26882e-05 -2.52294 0.901288 3.51996 
0.024375 0.00403125 1.97115 1.91751e+21 1.27515e-05 0.327357 2.37217 -1.79974 
0.025125 0.00403125 2.08204 1.97086e+21 1.31062e-05 -1.24258 -4.10503 -0.516012 
0.022875 0.00384375 1.95296 1.89916e+21 1.26294e-05 4.57605 -0.546389 -1.10647 
0.023625 0.00384375 1.94679 1.8815e+21 1.25119e-05 -2.58345 -0.599122 -4.69482 
0.022875 0.00403125 1.9626 1.93997e+21 1.29008e-05 3.81346 -1.54929 -3.72136 
0.023625 0.00403125 1.96294 1.81644e+21 1.20794e-05 0.32165 1.06841 -0.217181 
0.0256875 0.0186094 1.96612 1.83911e+21 1.22301e-05 1.88327 2.5133 1.25419 
0.0260625 0.0186094 2.08051 1.95345e+21 1.29904e-05 3.36465 1.83964 -1.50842 
0.0256875 0.0187031 2.01664 1.91945e+21 1.27643e-05 0.216736 -3.57606 -2.12403 
0.0260625 0.0187031 1.95918 1.86136e+21 1.2378e-05 -0.990923 -3.38097 -1.65425 
0.0241875 0.0189844 2.04168 1.96255e+21 1.3051e-05 -1.62609 1.7109 -1.21532 
0.0245625 0.0189844 2.03652 1.96494e+21 1.30668e-05 2.46821 -1.79429 -0.404066 
0.0241875 0.0190781 1.93143 1.98376e+21 1.3192e-05 -0.869997 0.857358 -2.99607 
0.0245625 0.0190781 1.92628 2.01698e+21 1.34129e-05 1.22664 0.433576 -0.633922 
0.0249375 0.0193594 1.99368 2.02977e+21 1.34979e-05 -1.64132 0.532919 3.4223 
0.0253125 0.0193594 1.96056 1.90817e+21 1.26893e-05 -2.85559 -0.694272 1.30333 
0.0271875 0.0201094 2.01272 1.90679e+21 1.26801e-05 0.913606 1.30798 0.724005 
0.0275625 0.0201094 1.99174 1.93155e+21 1.28448e-05 -1.64553 1.87189 4.74539 
0.0271875 0.0202031 1.94201 2.00326e+21 1.33217e-05 2.38361 1.30966 -2.34023 
0.0275625 0.0202031 2.02184 1.94276e+21 1.29193e-05 0.882081 2.79472 -2.09121 
0.0279375 0.0201094 1.974 1.94956e+21 1.29646e-05 3.25352 -2.1007 1.88851 
0.0283125 0.0201094 2.03988 2.03736e+21 1.35484e-05 3.36424 6.47599 -3.04229 
0.0283125 0.0202031 1.99527 2.02791e+21 1.34856e-05 -1.02766 -0.57833 6.07476 
0.0298125 0.0201094 2.13982 2.00134e+21 1.33089e-05 -0.134424 -3.62789 -1.59544 
0.0298125 0.0202031 1.97771 1.86881e+21 1.24276e-05 0.568479 -4.06644 -3.66962 
0.0264375 0.0202969 2.04539 2.00293e+21 1.33195e-05 -0.887922 0.34304 -1.07583 
0.0264375 0.0203906 1.99273 1.88715e+21 1.25495e-05 -2.79161 2.1813 -1.05258 
0.0268125 0.0203906 1.88987 1.97818e+21 1.31549e-05 -1.3196 -2.18225 -0.144033 
0.0264375 0.0204844 1.88432 1.84757e+21 1.22863e-05 0.981453 -0.959022 -0.969065 
0.0268125 0.0204844 2.04653 2.13045e+21 1.41675e-05 -1.36466 0.529504 -0.191821 
0.0264375 0.0205781 1.87087 1.99755e+21 1.32837e-05 1.21968 -2.76417 2.14852 
0.0268125 0.0205781 2.01531 2.00635e+21 1.33422e-05 0.74571 5.70323 0.246977 
0.0286875 0.0206719 1.96297 1.98192e+21 1.31798e-05 1.88425 -0.0664335 4.01958 
0.0290625 0.0206719 1.951 1.95783e+21 1.30196e-05 -0.225079 0.259578 -4.4039 
0.0286875 0.0207656 1.96212 1.98169e+21 1.31783e-05 -2.64396 -1.23207 0.711217 
0.0241875 0.0210469 1.96095 2.00683e+21 1.33455e-05 -1.91492 0.821041 0.470483 
0.0241875 0.0211406 2.02393 1.84804e+21 1.22894e-05 1.41013 1.65686 -2.51964 
0.0271875 0.0210469 2.00746 2.00468e+21 1.33311e-05 -2.18524 -5.24066 -2.61269 
0.0275625 0.0210469 2.01713 2.00683e+21 1.33455e-05 2.39322 4.3961 0.390536 
0.0275625 0.0211406 2.02921 1.96153e+21 1.30442e-05 1.48205 1.34115 2.16641 
0.0076875 0.0116719 1.90987 2.03627e+21 1.35412e-05 0.0102865 -1.90368 -1.53296 
0.0080625 0.0116719 1.96975 2.141e+21 1.42376e-05 2.34567 0.836073 -1.82484 
0.0076875 0.0117656 1.87397 2.01235e+21 1.33822e-05 2.26153 -0.427017 2.47812 
0.0080625 0.0117656 2.02353 2.30478e+21 1.53268e-05 1.86345 0.962486 -0.962268 
0.0114375 0.0118594 2.12215 2.08043e+21 1.38348e-05 6.47246 0.694222 0.943448 
0.0118125 0.0118594 1.97907 2.0308e+21 1.35048e-05 6.14627 0.547068 2.97714 
0.0114375 0.0119531 1.91663 2.05275e+21 1.36508e-05 2.59679 -3.74505 0.658123 
0.0118125 0.0119531 2.04803 1.98457e+21 1.31974e-05 -1.27664 4.41879 2.54082 
0.0076875 0.0120469 2.11349 2.20588e+21 1.46691e-05 3.1676 1.76454 -6.40631 
0.0080625 0.0120469 1.9452 2.07435e+21 1.37944e-05 4.40077 1.34988 1.03541 
0.0076875 0.0121406 1.97021 2.13664e+21 1.42086e-05 -0.632179 -3.16492 0.178784 
0.0080625 0.0121406 1.90961 2.12545e+21 1.41343e-05 2.26704 2.79047 -5.07461 
0.0211875 0.0174844 2.14923 1.99887e+21 1.32925e-05 -1.84883 -1.95172 -3.01795 
0.0215625 0.0174844 2.07245 1.92637e+21 1.28104e-05 -1.28094 0.279422 1.52152 
0.0211875 0.0175781 2.09556 1.92898e+21 1.28277e-05 1.19104 1.85886 1.1686 
0.0215625 0.0175781 1.97515 1.9161e+21 1.27421e-05 -1.84557 -0.164941 0.948867 
0.0219375 0.0176719 2.02314 1.9085e+21 1.26915e-05 -1.39897 -0.509807 1.57728 
0.0223125 0.0176719 1.9265 1.82652e+21 1.21464e-05 2.38384 -0.79611 -0.0744018 
0.0219375 0.0177656 1.94077 2.04113e+21 1.35735e-05 -0.892298 0.448576 1.55579 
0.0223125 0.0177656 1.99092 1.91117e+21 1.27093e-05 -1.64492 0.355119 -3.34942 
0.0204375 0.0182344 2.01566 2.06065e+21 1.37033e-05 -1.06441 -1.24924 -3.25442 
0.0208125 0.0182344 2.03234 1.98617e+21 1.3208e-05 -2.52782 -0.0639761 1.97574 
0.0204375 0.0183281 1.99931 2.03282e+21 1.35183e-05 -3.12754 -1.21412 3.57339 
0.0208125 0.0183281 1.92647 1.87227e+21 1.24506e-05 0.334048 -4.31055 1.62243 
0.0219375 0.0186094 1.99337 1.89506e+21 1.26022e-05 -0.520171 -0.416446 1.72313 
0.0223125 0.0186094 1.96854 2.06778e+21 1.37507e-05 -1.80458 0.12151 -0.661988 
0.0223125 0.0187031 2.02831 1.91461e+21 1.27321e-05 -0.0612744 3.62097 4.19014 
0.0219375 0.0193594 1.94591 2.01106e+21 1.33735e-05 2.14242 0.397925 2.89855 
0.0223125 0.0193594 2.04497 1.96663e+21 1.30781e-05 1.5443 -2.08371 1.87593 
0.0219375 0.0194531 2.06704 2.00369e+21 1.33246e-05 -3.98786 1.4973 -0.695175 
0.0223125 0.0194531 1.86607 1.89432e+21 1.25972e-05 -1.45272 2.02777 -1.27257 
0.0234375 0.0191719 2.04597 1.96225e+21 1.3049e-05 -1.38834 -1.47565 2.53232 
0.0238125 0.0191719 2.04796 1.92447e+21 1.27977e-05 0.179515 1.68575 1.17758 
0.0234375 0.0192656 1.9687 1.86106e+21 1.2376e-05 2.72444 0.748409 0.716453 
0.0238125 0.0192656 1.98614 2.03729e+21 1.3548e-05 2.58081 0.0123657 -1.03269 
0.0230625 0.0197344 1.99618 2.00725e+21 1.33482e-05 -1.44471 0.13523 -2.1146 
0.0226875 0.0198281 2.02164 1.97265e+21 1.31181e-05 -1.44494 -2.34927 -1.10069 
0.0230625 0.0198281 2.08045 1.9247e+21 1.27993e-05 -0.697784 1.75123 0.132337 
0.0226875 0.0200156 2.07352 1.96322e+21 1.30554e-05 1.43939 -3.69638 0.17857 
0.0238125 0.0202969 2.02108 1.92486e+21 1.28003e-05 -0.0748556 3.30229 -2.98821 
0.0234375 0.0203906 2.05224 1.91157e+21 1.27119e-05 -0.715693 0.24856 -4.76269 
0.0238125 0.0203906 1.91279 1.87827e+21 1.24905e-05 0.765515 3.30565 2.31301 
0.0226875 0.0208594 2.02001 1.91636e+21 1.27438e-05 3.45371 0.0793154 -0.428379 
0.0230625 0.0208594 1.95592 1.84257e+21 1.22531e-05 2.64853 -1.18682 1.64893 
0.0230625 0.0209531 2.01798 1.90562e+21 1.26724e-05 -2.36981 -2.50985 2.52042 
0.0204375 0.0210469 2.03876 2.01114e+21 1.33741e-05 -2.2856 -0.00811474 -2.96524 
0.0208125 0.0210469 2.01144 1.89499e+21 1.26017e-05 1.94704 3.22969 -2.89254 
0.0204375 0.0211406 2.01605 2.0065e+21 1.33432e-05 1.46298 0.251085 -0.28084 
0.0208125 0.0211406 1.95217 1.86089e+21 1.23749e-05 -1.03972 -1.95753 -2.2306 
0.0204375 0.0212344 2.03607 1.92089e+21 1.27739e-05 -1.79887 1.27044 1.25563 
0.0208125 0.0212344 1.97907 1.93155e+21 1.28448e-05 1.53018 0.843347 -1.37431 
0.0204375 0.0213281 1.95121 2.0398e+21 1.35647e-05 -3.11115 6.52508 1.31158 
0.0208125 0.0213281 1.90536 1.95278e+21 1.2986e-05 0.729949 -3.8736 -4.00945 
0.0234375 0.0212344 1.93941 1.9017e+21 1.26463e-05 1.22181 2.84321 2.2245 
0.0238125 0.0212344 2.08007 1.95714e+21 1.30149e-05 -2.70487 3.26167 -0.855768 
0.0234375 0.0213281 2.07332 1.97825e+21 1.31554e-05 1.07417 0.330145 -0.729673 
0.0238125 0.0213281 1.93703 1.95702e+21 1.30142e-05 2.01815 -0.935777 -1.00363 
0.01275 0.0016875 2.139 1.87685e+21 1.2481e-05 3.059 -0.9411 0.273051 
0.01425 0.0016875 2.00238 2.01706e+21 1.34135e-05 1.18654 0.394432 -0.687334 
0.01275 0.0020625 1.96084 1.96002e+21 1.30341e-05 4.00654 2.29258 -0.961103 
0.01275 0.0024375 1.95656 2.00671e+21 1.33446e-05 -1.16811 -1.15391 1.92657 
0.027375 0.00421875 1.99003 1.98252e+21 1.31838e-05 0.209939 4.10637 1.05176 
0.028125 0.00421875 2.05675 2.13275e+21 1.41828e-05 2.12164 1.13416 0.579493 
0.027375 0.00440625 2.02973 1.88018e+21 1.25032e-05 -1.93431 0.612654 0.034484 
0.028125 0.00440625 2.02831 1.83652e+21 1.22128e-05 4.10433 -1.44188 -2.02312 
0.027375 0.00496875 2.10848 1.89283e+21 1.25873e-05 0.936085 -0.331575 -2.64681 
0.028125 0.00496875 1.92687 1.97483e+21 1.31326e-05 -3.05669 -1.05158 0.657636 
0.028125 0.00515625 2.01642 2.00398e+21 1.33265e-05 2.17906 0.27358 0.611069 
0.029625 0.00496875 2.01355 2.06138e+21 1.37082e-05 0.306532 -3.7849 1.40016 
0.028875 0.00515625 2.03388 1.93594e+21 1.2874e-05 2.1505 1.58766 2.29595 
0.029625 0.00515625 1.96981 1.9974e+21 1.32827e-05 1.44197 -1.23478 -3.57225 
0.025125 0.00571875 2.10019 1.91374e+21 1.27264e-05 2.25721 -2.6292 1.16047 
0.024375 0.00590625 1.97039 1.92389e+21 1.27938e-05 -0.210429 1.05813 -2.46068 
0.025125 0.00590625 2.02646 1.87406e+21 1.24625e-05 4.0675 -2.12945 -0.839665 
0.028125 0.00571875 1.96586 2.02259e+21 1.34502e-05 1.81454 4.36015 0.151603 
0.029625 0.00571875 1.95 1.8702e+21 1.24368e-05 -2.31811 -1.12181 -0.787213 
0.028875 0.00590625 2.01748 1.96413e+21 1.30614e-05 0.423401 0.675351 -0.237853 
0.024375 0.00609375 2.0287 1.92784e+21 1.28201e-05 3.89661 -1.04906 -1.34818 
0.025125 0.00609375 1.93695 1.92227e+21 1.27831e-05 3.19437 -0.382026 -0.963637 
0.026625 0.00609375 1.97681 1.98727e+21 1.32153e-05 3.05488 -1.40815 0.0348382 
0.026625 0.00628125 2.03948 1.96218e+21 1.30485e-05 0.977008 -1.35409 0.624762 
0.024375 0.00665625 2.01725 1.99446e+21 1.32632e-05 -0.860118 -1.69893 1.09284 
0.025125 0.00665625 2.03542 2.05567e+21 1.36702e-05 -0.223968 -0.302448 2.40177 
0.027375 0.00778125 1.94576 1.94755e+21 1.29512e-05 0.464823 -3.07675 -0.231805 
0.006375 0.00084375 1.82309 4.4533e+21 2.96144e-05 42.8872 12.0955 -1.923 
0.007125 0.00084375 1.88315 3.83628e+21 2.55112e-05 37.9556 8.49618 1.13933 
0.006375 0.00103125 1.83546 4.34599e+21 2.89008e-05 43.2821 -0.874592 1.80352 
0.007125 0.00103125 1.92001 3.66556e+21 2.4376e-05 35.9932 18.7043 -7.0124 
0.006375 0.00121875 1.77813 3.80739e+21 2.53191e-05 29.8379 0.423324 1.83758 
0.007125 0.00121875 1.79039 3.14806e+21 2.09346e-05 33.3839 12.3953 -1.79237 
0.006375 0.00140625 1.99089 4.22527e+21 2.8098e-05 23.9349 7.34881 -0.39476 
0.007125 0.00140625 1.8474 2.95366e+21 1.96419e-05 29.0463 21.2875 -0.55267 
0.007875 0.00384375 1.93586 2.385e+21 1.58602e-05 1.46856 3.58201 2.57448 
0.008625 0.00384375 1.91608 2.48511e+21 1.6526e-05 -2.81156 6.12939 3.7531 
0.007875 0.00403125 2.04407 2.45936e+21 1.63547e-05 2.70119 7.28143 1.37567 
0.008625 0.00403125 1.95896 2.41444e+21 1.6056e-05 1.0054 9.36575 -0.950466 
0.016875 0.00496875 1.99849 1.88827e+21 1.2557e-05 3.88768 -0.814734 2.10663 
0.017625 0.00496875 2.01632 1.89738e+21 1.26176e-05 -1.33013 0.622191 -0.222556 
0.016875 0.00515625 1.85994 1.92277e+21 1.27864e-05 -1.06259 -1.80908 0.947615 
0.017625 0.00515625 1.98736 1.95131e+21 1.29762e-05 -0.483176 0.246302 3.67125 
0.014625 0.00571875 1.99709 2.04634e+21 1.36081e-05 1.21299 1.88867 0.44497 
0.013875 0.00590625 1.98807 2.03694e+21 1.35457e-05 -2.68982 -1.88975 -1.46206 
0.014625 0.00590625 1.93669 1.91814e+21 1.27556e-05 2.42657 -0.236854 1.62621 
0.017625 0.00609375 2.04276 2.0597e+21 1.3697e-05 3.30137 0.954168 0.951469 
0.015375 0.00646875 2.06914 2.00328e+21 1.33218e-05 -1.84483 -2.43367 -0.279122 
0.016125 0.00646875 2.01427 2.00328e+21 1.33218e-05 2.07141 0.526011 1.30423 
0.017625 0.00665625 2.02948 1.93835e+21 1.289e-05 1.45766 0.712381 1.10982 
0.014625 0.00740625 1.94027 1.9942e+21 1.32615e-05 0.785516 -2.2569 -0.879301 
0.012375 0.00759375 1.92703 1.8779e+21 1.2488e-05 -13.4285 -2.53164 -9.50075 
0.012375 0.00778125 1.86671 1.83265e+21 1.21871e-05 -5.3182 4.67798 3.32929 
0.012375 0.00871875 2.04128 2.00554e+21 1.33369e-05 -16.0786 4.12411 12.7766 
0.012375 0.00890625 1.98085 1.94426e+21 1.29293e-05 9.20783 -7.16024 -5.15703 
0.012375 0.00909375 2.07561 1.77349e+21 1.17937e-05 7.52361 -5.78954 -12.149 
0.012375 0.00928125 1.90308 1.8657e+21 1.24069e-05 6.10548 -20.7664 2.83978 
0.022875 0.00496875 1.97872 1.95888e+21 1.30266e-05 0.7271 0.536172 -3.27096 
0.023625 0.00496875 1.99169 2.02038e+21 1.34356e-05 -0.464624 -0.199438 -3.35652 
0.022875 0.00515625 2.04543 1.93155e+21 1.28448e-05 0.19315 0.61292 -0.861239 
0.023625 0.00515625 1.83662 1.97984e+21 1.31659e-05 -0.932611 0.64894 2.02276 
0.021375 0.00534375 1.91131 1.91673e+21 1.27462e-05 0.667374 -0.245 -3.60954 
0.021375 0.00553125 1.95381 1.98475e+21 1.31986e-05 0.212141 2.47654 1.89636 
0.022125 0.00553125 2.05427 1.96429e+21 1.30625e-05 1.65562 3.35775 -3.80116 
0.018375 0.0195938 0 0 0 0 0 0 
0.018375 0.0197812 0 0 0 0 0 0 
0.018375 0.0199687 0 0 0 0 0 0 
0.018375 0.0201562 0 0 0 0 0 0 
0.018375 0.0203437 0 0 0 0 0 0 
0.018375 0.0205312 0 0 0 0 0 0 
0.018375 0.0207187 0 0 0 0 0 0 
0.018375 0.0209062 0 0 0 0 0 0 
0.010125 0.00759375 0 0 0 0 0 0 
0.010125 0.00778125 0 0 0 0 0 0 
0.0241875 0.0150469 2.03517 1.91651e+21 1.27448e-05 2.80377 -1.09448 -0.509237 
0.0245625 0.0150469 1.99513 2.00978e+21 1.3365e-05 -0.308792 2.64949 1.21173 
0.0241875 0.0151406 2.00948 1.84783e+21 1.22881e-05 -1.40974 0.0454928 -2.58418 
0.0245625 0.0151406 2.00511 1.99733e+21 1.32823e-05 -3.69992 0.0426933 -4.50382 
0.0279375 0.0154219 1.96238 1.97265e+21 1.31181e-05 0.412101 -9.84031 2.80718 
0.0283125 0.0154219 1.96931 1.87871e+21 1.24934e-05 -3.72713 2.26259 -1.17005 
0.0279375 0.0155156 1.98393 1.90237e+21 1.26508e-05 0.592218 1.04537 1.29176 
0.0283125 0.0155156 1.97573 1.87903e+21 1.24956e-05 1.28255 0.542174 -2.22133 
0.0286875 0.0157969 2.07423 2.02326e+21 1.34547e-05 -1.90235 1.08478 3.49617 
0.0290625 0.0157969 1.93271 1.99747e+21 1.32831e-05 1.3077 0.230682 -2.25244 
0.0286875 0.0158906 2.07975 1.95149e+21 1.29774e-05 0.911466 -7.38844 -0.55419 
0.0290625 0.0158906 1.9584 1.88597e+21 1.25417e-05 -5.53638 1.57666 -0.697232 
0.0286875 0.0159844 1.93353 1.99952e+21 1.32968e-05 0.95737 3.49212 -0.489904 
0.0290625 0.0159844 2.04307 1.94005e+21 1.29013e-05 -1.77287 3.22582 2.06078 
0.0286875 0.0160781 2.00482 1.84145e+21 1.22456e-05 -3.01087 -1.49906 2.08566 
0.0290625 0.0160781 1.83987 1.80766e+21 1.2021e-05 0.570012 -5.68014 2.06678 
0.0256875 0.0167344 1.92184 1.99107e+21 1.32406e-05 3.91904 -1.41696 -0.694762 
0.0260625 0.0167344 1.98148 1.9559e+21 1.30067e-05 0.396737 5.82562 -0.94631 
0.0256875 0.0168281 2.16778 1.93693e+21 1.28806e-05 1.62968 -3.55986 -1.70772 
0.0260625 0.0168281 2.03915 2.00419e+21 1.33278e-05 0.228234 -0.0738971 -0.182528 
0.0256875 0.0169219 1.96831 1.89677e+21 1.26135e-05 2.86861 -0.26814 3.41793 
0.0260625 0.0169219 2.0523 1.9369e+21 1.28804e-05 -5.64276 -2.19121 3.64612 
0.0256875 0.0170156 2.01524 1.91559e+21 1.27387e-05 2.29983 -4.56415 -2.73227 
0.0260625 0.0170156 2.06038 2.03531e+21 1.35348e-05 1.43763 -1.72306 1.7243 
0.0256875 0.0171094 1.94048 2.02151e+21 1.34431e-05 0.459607 2.14684 -1.27427 
0.0260625 0.0171094 2.03487 2.1644e+21 1.43932e-05 -0.302115 0.625738 -1.08772 
0.0256875 0.0172031 1.96895 1.91576e+21 1.27398e-05 -4.25917 0.408427 -3.51659 
0.0260625 0.0172031 1.97891 1.93418e+21 1.28623e-05 1.05412 1.91418 1.43461 
0.0249375 0.0178594 1.90925 1.96197e+21 1.30471e-05 -0.490777 -3.99824 1.10836 
0.0253125 0.0178594 1.9268 1.782e+21 1.18503e-05 -3.20658 -1.28726 2.55373 
0.0249375 0.0179531 1.96917 1.86851e+21 1.24256e-05 -0.83085 4.45302 2.74074 
0.0253125 0.0179531 2.0391 1.88868e+21 1.25598e-05 1.23209 0.351399 3.52693 
0.0256875 0.0178594 1.94338 1.95437e+21 1.29965e-05 2.89683 -1.24282 3.33599 
0.0260625 0.0178594 1.98639 1.87072e+21 1.24403e-05 -2.49802 -0.362718 -0.320683 
0.0256875 0.0179531 2.02713 2.03746e+21 1.35491e-05 0.581941 -1.2919 5.37334 
0.0260625 0.0179531 2.05503 1.86095e+21 1.23753e-05 0.0838224 0.63543 -1.55487 
0.0279375 0.0178594 1.94379 2.02027e+21 1.34348e-05 0.946278 -1.79467 2.73977 
0.0283125 0.0178594 2.00589 1.9645e+21 1.3064e-05 1.24295 3.02661 -0.990635 
0.0279375 0.0179531 1.91016 1.96938e+21 1.30963e-05 1.49024 -2.87674 2.58009 
0.0283125 0.0179531 2.01706 2.00972e+21 1.33646e-05 1.21487 1.25283 1.24069 
0.0249375 0.0180469 2.01542 2.10464e+21 1.39958e-05 -4.08442 0.806519 -0.983811 
0.0253125 0.0180469 2.01577 2.07203e+21 1.3779e-05 0.844151 -2.14864 2.75136 
0.0249375 0.0181406 2.01141 1.88913e+21 1.25627e-05 2.47564 5.3266 0.777573 
0.0253125 0.0181406 2.01892 1.97647e+21 1.31435e-05 0.624324 -0.253038 1.39266 
0.0256875 0.0180469 2.01477 1.91148e+21 1.27114e-05 1.23965 3.66759 -0.398364 
0.0260625 0.0180469 1.90934 1.87386e+21 1.24611e-05 -0.474774 1.86496 3.63716 
0.0256875 0.0181406 2.02937 1.99394e+21 1.32597e-05 -1.75357 2.28337 -0.554329 
0.0260625 0.0181406 2.08026 1.86667e+21 1.24133e-05 0.377986 3.98354 1.71755 
0.0294375 0.0182344 2.01397 1.91417e+21 1.27292e-05 3.5717 0.334562 0.0640565 
0.0298125 0.0182344 2.07429 1.88686e+21 1.25476e-05 -2.31366 0.98807 -1.86709 
0.0294375 0.0183281 2.00524 1.90438e+21 1.26641e-05 -1.94285 4.13299 -1.02469 
0.0298125 0.0183281 2.05082 1.83275e+21 1.21878e-05 3.73334 -1.5044 0.346328 
0.0294375 0.0186094 1.90575 1.99237e+21 1.32493e-05 3.63221 -3.31644 0.38335 
0.0298125 0.0186094 2.05498 2.07751e+21 1.38155e-05 1.4903 -2.37276 0.286584 
0.0294375 0.0187031 1.94268 2.1857e+21 1.45349e-05 2.86855 0.5439 1.84063 
0.0298125 0.0187031 1.99286 1.94607e+21 1.29414e-05 -1.1085 0.153554 0.429263 
0.0241875 0.0187969 1.97211 2.02066e+21 1.34374e-05 3.39651 1.27655 -0.117964 
0.0245625 0.0187969 2.00693 1.90024e+21 1.26366e-05 3.47355 0.446826 -0.927601 